# vtk DataFile Version 3.0
Concentration output
ASCII
DATASET STRUCTURED_POINTS
DIMENSIONS 298 298 1
ORIGIN 0 0 0
SPACING 0.03 0.03 1.0
POINT_DATA 88804
SCALARS Variable float 1
LOOKUP_TABLE default
0.00000000
0.00000000
0.00000000
0.00000000
0.00000000
0.00000000
0.00000000
0.00000000
0.00000000
0.00000000
0.00000000
0.00000000
0.00000000
0.00000000
0.00000000
0.00000000
0.00000000
0.00000000
0.00000000
0.00000000
0.00000000
0.00000000
0.00000000
0.00000000
0.00000000
0.00000000
0.00000000
0.00000000
0.00000000
0.00000000
0.00000000
0.00000000
0.00000000
0.00000001
0.00000003
0.00000009
0.00000023
0.00000060
0.00000151
0.00000372
0.00000895
0.00002097
0.00004745
0.00010305
0.00021355
0.00041474
0.00074416
0.00120604
0.00173202
0.00216663
0.00235946
0.00226753
0.00199582
0.00167344
0.00137829
0.00114026
0.00095848
0.00082455
0.00072675
0.00065450
0.00060162
0.00056214
0.00053223
0.00051102
0.00049458
0.00048267
0.00047304
0.00046240
0.00044915
0.00043160
0.00041284
0.00040056
0.00040474
0.00043774
0.00050308
0.00058690
0.00066115
0.00071059
0.00073626
0.00074731
0.00075339
0.00075925
0.00076665
0.00077667
0.00078802
0.00080091
0.00081562
0.00083087
0.00084656
0.00086186
0.00087799
0.00089326
0.00090864
0.00092262
0.00093733
0.00095154
0.00096315
0.00097622
0.00098989
0.00100332
0.00102272
0.00104975
0.00110548
0.00123309
0.00155328
0.00226228
0.00345642
0.00474571
0.00560604
0.00599630
0.00609234
0.00607733
0.00603014
0.00599156
0.00597208
0.00598566
0.00603884
0.00613393
0.00630385
0.00659995
0.00708371
0.00788631
0.00915821
0.01085204
0.01226453
0.01206999
0.01020609
0.00800056
0.00625797
0.00508310
0.00460130
0.00600620
0.01512427
0.06179856
0.27930987
0.80222279
0.96132973
0.99276196
0.99863760
0.99974053
0.99995023
0.99999041
0.99999815
0.99999964
0.99999993
0.99999999
1.00000000
1.00000000
1.00000000
1.00000000
1.00000000
1.00000000
1.00000000
0.99999999
0.99999993
0.99999966
0.99999822
0.99999077
0.99995218
0.99975073
0.99869032
0.99303688
0.96269531
0.80830577
0.29007545
0.06428645
0.01560754
0.00607319
0.00457789
0.00508101
0.00640273
0.00854047
0.01156399
0.01429621
0.01434252
0.01198884
0.00954666
0.00794990
0.00705858
0.00655289
0.00627474
0.00610645
0.00601360
0.00597101
0.00595556
0.00597632
0.00600956
0.00605625
0.00607771
0.00600262
0.00565776
0.00484339
0.00357830
0.00235257
0.00159961
0.00125403
0.00111433
0.00105561
0.00102644
0.00100713
0.00099297
0.00098014
0.00096674
0.00095462
0.00094039
0.00092653
0.00091168
0.00089640
0.00088151
0.00086595
0.00084993
0.00083376
0.00081815
0.00080337
0.00079012
0.00077876
0.00076790
0.00076020
0.00075380
0.00074789
0.00073680
0.00071272
0.00066438
0.00059098
0.00050648
0.00043917
0.00040516
0.00039963
0.00041200
0.00043123
0.00045018
0.00046580
0.00047790
0.00048827
0.00050134
0.00051775
0.00054086
0.00057134
0.00061206
0.00066754
0.00074150
0.00084396
0.00098403
0.00117141
0.00141993
0.00171982
0.00203963
0.00229572
0.00235149
0.00212562
0.00167105
0.00114745
0.00069887
0.00038595
0.00019689
0.00009453
0.00004321
0.00001899
0.00000807
0.00000334
0.00000135
0.00000054
0.00000021
0.00000008
0.00000003
0.00000001
0.00000000
0.00000000
0.00000000
0.00000000
0.00000000
0.00000000
0.00000000
0.00000000
0.00000000
0.00000000
0.00000000
0.00000000
0.00000000
0.00000000
0.00000000
0.00000000
0.00000000
0.00000000
0.00000000
0.00000000
0.00000000
0.00000000
0.00000000
0.00000000
0.00000000
0.00000000
0.00000000
0.00000000
0.00000000
0.00000000
0.00000000
0.00000000
0.00000000
0.00000000
0.00000000
0.00000000
0.00000000
0.00000000
0.00000000
0.00000000
0.00000000
0.00000000
0.00000000
0.00000000
0.00000000
0.00000000
0.00000000
0.00000000
0.00000000
0.00000000
0.00000000
0.00000000
0.00000000
0.00000000
0.00000000
0.00000000
0.00000000
0.00000000
0.00000000
0.00000000
0.00000000
0.00000000
0.00000000
0.00000000
0.00000001
0.00000002
0.00000005
0.00000013
0.00000035
0.00000091
0.00000237
0.00000601
0.00001500
0.00003640
0.00008574
0.00019485
0.00042256
0.00086286
0.00162346
0.00273458
0.00404031
0.00515089
0.00571646
0.00567687
0.00523901
0.00468433
0.00417221
0.00374347
0.00339606
0.00312477
0.00291985
0.00275724
0.00263577
0.00253621
0.00246399
0.00240953
0.00237116
0.00234504
0.00232159
0.00229135
0.00224126
0.00216811
0.00208535
0.00203217
0.00206916
0.00225952
0.00264242
0.00314104
0.00358617
0.00388046
0.00403218
0.00410642
0.00414695
0.00418723
0.00422921
0.00428105
0.00434699
0.00441566
0.00448679
0.00456111
0.00463873
0.00471470
0.00479443
0.00487267
0.00494644
0.00501080
0.00507838
0.00514466
0.00520763
0.00526331
0.00532826
0.00539557
0.00548368
0.00560433
0.00585656
0.00644977
0.00799537
0.01168816
0.01826678
0.02541342
0.03001122
0.03201502
0.03249251
0.03241763
0.03221668
0.03200700
0.03194459
0.03198571
0.03217748
0.03261874
0.03334994
0.03459073
0.03665409
0.04013043
0.04582175
0.05363303
0.06042357
0.05964828
0.05078103
0.04057516
0.03254974
0.02700802
0.02409824
0.02697752
0.05029681
0.15336421
0.49439072
0.87644226
0.97549660
0.99525404
0.99907538
0.99981862
0.99996426
0.99999294
0.99999861
0.99999972
0.99999994
0.99999999
1.00000000
1.00000000
1.00000000
1.00000000
1.00000000
1.00000000
1.00000000
0.99999999
0.99999995
0.99999973
0.99999866
0.99999324
0.99996575
0.99982635
0.99911492
0.99545379
0.97651818
0.88138734
0.50908232
0.15871861
0.05146382
0.02707608
0.02395244
0.02694887
0.03313759
0.04295767
0.05716387
0.07043195
0.07053734
0.05894084
0.04752074
0.04038493
0.03652739
0.03436833
0.03318341
0.03246393
0.03206832
0.03190401
0.03187182
0.03194638
0.03211033
0.03234111
0.03245422
0.03206823
0.03030767
0.02598106
0.01896235
0.01216782
0.00823298
0.00655208
0.00589702
0.00563240
0.00549993
0.00541196
0.00534249
0.00527961
0.00522218
0.00516301
0.00509905
0.00503290
0.00495859
0.00488664
0.00481315
0.00473433
0.00465963
0.00458432
0.00450004
0.00442620
0.00435845
0.00429754
0.00424186
0.00419250
0.00415413
0.00411227
0.00404236
0.00389101
0.00360453
0.00316278
0.00266311
0.00227022
0.00206993
0.00202915
0.00208082
0.00216712
0.00224793
0.00230614
0.00234263
0.00236976
0.00240009
0.00244224
0.00249812
0.00257360
0.00267102
0.00280080
0.00296482
0.00317962
0.00345952
0.00380915
0.00425318
0.00477434
0.00531294
0.00571919
0.00568898
0.00504785
0.00389055
0.00259229
0.00151607
0.00079773
0.00038744
0.00017755
0.00007774
0.00003283
0.00001346
0.00000539
0.00000211
0.00000081
0.00000031
0.00000012
0.00000004
0.00000002
0.00000001
0.00000000
0.00000000
0.00000000
0.00000000
0.00000000
0.00000000
0.00000000
0.00000000
0.00000000
0.00000000
0.00000000
0.00000000
0.00000000
0.00000000
0.00000000
0.00000000
0.00000000
0.00000000
0.00000000
0.00000000
0.00000000
0.00000000
0.00000000
0.00000000
0.00000000
0.00000000
0.00000000
0.00000000
0.00000000
0.00000000
0.00000000
0.00000000
0.00000000
0.00000000
0.00000000
0.00000000
0.00000000
0.00000000
0.00000000
0.00000000
0.00000000
0.00000000
0.00000000
0.00000000
0.00000000
0.00000000
0.00000000
0.00000000
0.00000000
0.00000000
0.00000000
0.00000000
0.00000000
0.00000000
0.00000000
0.00000000
0.00000000
0.00000000
0.00000000
0.00000000
0.00000000
0.00000000
0.00000000
0.00000001
0.00000003
0.00000008
0.00000022
0.00000061
0.00000166
0.00000444
0.00001172
0.00003037
0.00007701
0.00018999
0.00045376
0.00103736
0.00223565
0.00441656
0.00774081
0.01175939
0.01531952
0.01739587
0.01787605
0.01742124
0.01670279
0.01601837
0.01543366
0.01495054
0.01455047
0.01424147
0.01396376
0.01374766
0.01355280
0.01340711
0.01331967
0.01326117
0.01325142
0.01324062
0.01316232
0.01294497
0.01258374
0.01214927
0.01189337
0.01216491
0.01341679
0.01594072
0.01925850
0.02226651
0.02424122
0.02529912
0.02579522
0.02608974
0.02635116
0.02665145
0.02696925
0.02733837
0.02774468
0.02816098
0.02858331
0.02902395
0.02943069
0.02986863
0.03027661
0.03070633
0.03106183
0.03141366
0.03178432
0.03208906
0.03240038
0.03274803
0.03311622
0.03356507
0.03418565
0.03547973
0.03851639
0.04681231
0.06801595
0.10765920
0.14999407
0.17592425
0.18634074
0.18874883
0.18848008
0.18749401
0.18656465
0.18625310
0.18626926
0.18717135
0.18914479
0.19215162
0.19748415
0.20625131
0.22104066
0.24518265
0.27914486
0.30892555
0.30573584
0.26667855
0.22171617
0.18573569
0.15906303
0.14307794
0.14981829
0.22029775
0.45238497
0.79364660
0.95164187
0.98976953
0.99786874
0.99955594
0.99990767
0.99998084
0.99999604
0.99999918
0.99999982
0.99999995
0.99999998
0.99999999
0.99999999
1.00000000
1.00000000
1.00000000
0.99999999
0.99999999
0.99999998
0.99999995
0.99999983
0.99999922
0.99999622
0.99998175
0.99991200
0.99957696
0.99796594
0.99022475
0.95369435
0.80119761
0.46150430
0.22329595
0.14993158
0.14215306
0.15865664
0.18797888
0.23176918
0.29410982
0.35273991
0.35300719
0.30149969
0.25236665
0.22208158
0.20552557
0.19653595
0.19145306
0.18847794
0.18678132
0.18607228
0.18584961
0.18635592
0.18713742
0.18825659
0.18863153
0.18662565
0.17734141
0.15329881
0.11188978
0.07082686
0.04813239
0.03903383
0.03568887
0.03430998
0.03364066
0.03318052
0.03280770
0.03248804
0.03217323
0.03186955
0.03149847
0.03115787
0.03078182
0.03038207
0.02997138
0.02952019
0.02911656
0.02869212
0.02823286
0.02781120
0.02740673
0.02702204
0.02670065
0.02639266
0.02612658
0.02584779
0.02531430
0.02432075
0.02239780
0.01942851
0.01607037
0.01348697
0.01217915
0.01186885
0.01212566
0.01257925
0.01297194
0.01322878
0.01334960
0.01339009
0.01342994
0.01348848
0.01357159
0.01371130
0.01390520
0.01412822
0.01438645
0.01472151
0.01512846
0.01561119
0.01619031
0.01686625
0.01754640
0.01793043
0.01725984
0.01498631
0.01128587
0.00730898
0.00410242
0.00205191
0.00094484
0.00041112
0.00017134
0.00006910
0.00002714
0.00001044
0.00000394
0.00000147
0.00000054
0.00000020
0.00000007
0.00000002
0.00000001
0.00000000
0.00000000
0.00000000
0.00000000
0.00000000
0.00000000
0.00000000
0.00000000
0.00000000
0.00000000
0.00000000
0.00000000
0.00000000
0.00000000
0.00000000
0.00000000
0.00000000
0.00000000
0.00000000
0.00000000
0.00000000
0.00000000
0.00000000
0.00000000
0.00000000
0.00000000
0.00000000
0.00000000
0.00000000
0.00000000
0.00000000
0.00000000
0.00000000
0.00000000
0.00000000
0.00000000
0.00000000
0.00000000
0.00000000
0.00000000
0.00000000
0.00000000
0.00000000
0.00000000
0.00000000
0.00000000
0.00000000
0.00000000
0.00000000
0.00000000
0.00000000
0.00000000
0.00000000
0.00000000
0.00000000
0.00000000
0.00000000
0.00000000
0.00000000
0.00000000
0.00000000
0.00000000
0.00000001
0.00000002
0.00000005
0.00000014
0.00000039
0.00000111
0.00000311
0.00000862
0.00002364
0.00006376
0.00016881
0.00043615
0.00109535
0.00264354
0.00601513
0.01250574
0.02276188
0.03540909
0.04704277
0.05500824
0.05913028
0.06137134
0.06344201
0.06554559
0.06733282
0.06881838
0.07005838
0.07101740
0.07162798
0.07215096
0.07249992
0.07276697
0.07305221
0.07347637
0.07397090
0.07434174
0.07432951
0.07350251
0.07175340
0.06948976
0.06829770
0.07018004
0.07790639
0.09373961
0.11480662
0.13389159
0.14617660
0.15255386
0.15572585
0.15769292
0.15923586
0.16091351
0.16271386
0.16460940
0.16663709
0.16882015
0.17087021
0.17306723
0.17514215
0.17717735
0.17912424
0.18113660
0.18281227
0.18452862
0.18618041
0.18763592
0.18907408
0.19058013
0.19221026
0.19428963
0.19701274
0.20266257
0.21576087
0.25199427
0.34783142
0.52121227
0.67438264
0.74442212
0.76658290
0.77153375
0.77160148
0.77031904
0.76915214
0.76863297
0.76873915
0.76959801
0.77171925
0.77534185
0.78101107
0.78952302
0.80172042
0.81706631
0.83421778
0.84595623
0.84386814
0.82526221
0.79452191
0.75471292
0.70699971
0.66581252
0.66786594
0.73991617
0.85390203
0.94832385
0.98654133
0.99679041
0.99925867
0.99983200
0.99996246
0.99999169
0.99999816
0.99999954
0.99999981
0.99999987
0.99999991
0.99999995
0.99999997
0.99999999
0.99999999
0.99999999
0.99999997
0.99999995
0.99999991
0.99999987
0.99999981
0.99999956
0.99999825
0.99999213
0.99996440
0.99984059
0.99929520
0.99694183
0.98711859
0.95021943
0.85684109
0.74174654
0.66667061
0.66251052
0.70560837
0.75603687
0.80024702
0.83629429
0.85904476
0.85986199
0.84245378
0.82051618
0.80196123
0.78855778
0.77977068
0.77448207
0.77104604
0.76906248
0.76809309
0.76806864
0.76856613
0.76989850
0.77109875
0.77145637
0.76722578
0.74773911
0.68407962
0.53820151
0.36095755
0.25759057
0.21794607
0.20356367
0.19766062
0.19456244
0.19260908
0.19098210
0.18956493
0.18815949
0.18666496
0.18500354
0.18329174
0.18153833
0.17972870
0.17768231
0.17563056
0.17350599
0.17144209
0.16911463
0.16691315
0.16505139
0.16285665
0.16117585
0.15944691
0.15785499
0.15594034
0.15276959
0.14659701
0.13469890
0.11584941
0.09451766
0.07831358
0.07021877
0.06816715
0.06940835
0.07170509
0.07368595
0.07470988
0.07495719
0.07470400
0.07429382
0.07392537
0.07349657
0.07323100
0.07281578
0.07230654
0.07160263
0.07051998
0.06927411
0.06765991
0.06567860
0.06353563
0.06135264
0.05886416
0.05433244
0.04587722
0.03390398
0.02139954
0.01154093
0.00548078
0.00238745
0.00098514
0.00039071
0.00015053
0.00005672
0.00002095
0.00000763
0.00000274
0.00000098
0.00000034
0.00000012
0.00000004
0.00000001
0.00000000
0.00000000
0.00000000
0.00000000
0.00000000
0.00000000
0.00000000
0.00000000
0.00000000
0.00000000
0.00000000
0.00000000
0.00000000
0.00000000
0.00000000
0.00000000
0.00000000
0.00000000
0.00000000
0.00000000
0.00000000
0.00000000
0.00000000
0.00000000
0.00000000
0.00000000
0.00000000
0.00000000
0.00000000
0.00000000
0.00000000
0.00000000
0.00000000
0.00000000
0.00000000
0.00000000
0.00000000
0.00000000
0.00000000
0.00000000
0.00000000
0.00000000
0.00000000
0.00000000
0.00000000
0.00000000
0.00000000
0.00000000
0.00000000
0.00000000
0.00000000
0.00000000
0.00000000
0.00000000
0.00000000
0.00000000
0.00000000
0.00000000
0.00000000
0.00000000
0.00000000
0.00000000
0.00000001
0.00000003
0.00000008
0.00000023
0.00000067
0.00000197
0.00000570
0.00001638
0.00004658
0.00013096
0.00036253
0.00098537
0.00261122
0.00668648
0.01618549
0.03548368
0.06652404
0.10472779
0.14107136
0.17045022
0.19448375
0.21786812
0.24286161
0.26645262
0.28701425
0.30369033
0.31717345
0.32800803
0.33624166
0.34294114
0.34801688
0.35208885
0.35590538
0.35933216
0.36297503
0.36604030
0.36726392
0.36471450
0.35807989
0.34928923
0.34466953
0.35364849
0.39023065
0.46312690
0.55604975
0.63241850
0.67677511
0.69767146
0.70796689
0.71348874
0.71791374
0.72193866
0.72643836
0.73072076
0.73492550
0.73905946
0.74321367
0.74712910
0.75091392
0.75424886
0.75755234
0.76050811
0.76301245
0.76550828
0.76792171
0.76985736
0.77181691
0.77389901
0.77587153
0.77839035
0.78165776
0.78741625
0.79776781
0.81829257
0.85477522
0.90160596
0.93642329
0.95220813
0.95744668
0.95869128
0.95871274
0.95844188
0.95817658
0.95805866
0.95804832
0.95828235
0.95866209
0.95945630
0.96068350
0.96244737
0.96496258
0.96803083
0.97129256
0.97334078
0.97274382
0.96886170
0.96216489
0.95292852
0.94148237
0.93128504
0.93091504
0.94627869
0.96988428
0.98858534
0.99663296
0.99910188
0.99977194
0.99994401
0.99998655
0.99999676
0.99999907
0.99999944
0.99999941
0.99999941
0.99999955
0.99999973
0.99999987
0.99999994
0.99999996
0.99999994
0.99999987
0.99999973
0.99999955
0.99999941
0.99999942
0.99999946
0.99999912
0.99999695
0.99998733
0.99994705
0.99978387
0.99914587
0.99678591
0.98900914
0.97058590
0.94678749
0.93073651
0.93063813
0.94116820
0.95324904
0.96334061
0.97093450
0.97542542
0.97576910
0.97274423
0.96865089
0.96497984
0.96224714
0.96039042
0.95920379
0.95853252
0.95807803
0.95794258
0.95792936
0.95806939
0.95835947
0.95863446
0.95867838
0.95760825
0.95296453
0.93860694
0.90564586
0.85899020
0.82090726
0.79912803
0.78808451
0.78235445
0.77882688
0.77644518
0.77420502
0.77255431
0.77061091
0.76855557
0.76627117
0.76400278
0.76129838
0.75822814
0.75514120
0.75173877
0.74795406
0.74415211
0.73989875
0.73557204
0.73131334
0.72688893
0.72270549
0.71852398
0.71395108
0.70858199
0.69873274
0.67817623
0.63507475
0.56016342
0.46702234
0.39204885
0.35403980
0.34369715
0.34857712
0.35807492
0.36572336
0.36905133
0.36892162
0.36642711
0.36292705
0.35904265
0.35527053
0.35073682
0.34532626
0.33839824
0.32957819
0.31826156
0.30423585
0.28713457
0.26545036
0.24084478
0.21580121
0.19220753
0.16758098
0.13722992
0.10020735
0.06239620
0.03254275
0.01463523
0.00599554
0.00233036
0.00087539
0.00032121
0.00011589
0.00004114
0.00001443
0.00000501
0.00000173
0.00000059
0.00000020
0.00000007
0.00000002
0.00000001
0.00000000
0.00000000
0.00000000
0.00000000
0.00000000
0.00000000
0.00000000
0.00000000
0.00000000
0.00000000
0.00000000
0.00000000
0.00000000
0.00000000
0.00000000
0.00000000
0.00000000
0.00000000
0.00000000
0.00000000
0.00000000
0.00000000
0.00000000
0.00000000
0.00000000
0.00000000
0.00000000
0.00000000
0.00000000
0.00000000
0.00000000
0.00000000
0.00000000
0.00000000
0.00000000
0.00000000
0.00000000
0.00000000
0.00000000
0.00000000
0.00000000
0.00000000
0.00000000
0.00000000
0.00000000
0.00000000
0.00000000
0.00000000
0.00000000
0.00000000
0.00000000
0.00000000
0.00000000
0.00000000
0.00000000
0.00000000
0.00000000
0.00000000
0.00000000
0.00000000
0.00000000
0.00000001
0.00000004
0.00000012
0.00000036
0.00000110
0.00000332
0.00000993
0.00002958
0.00008738
0.00025629
0.00074416
0.00213337
0.00601822
0.01646792
0.04248079
0.09719446
0.18155477
0.27743284
0.36859525
0.45533948
0.54368421
0.63396698
0.71391087
0.76998098
0.80337453
0.82278511
0.83475064
0.84252134
0.84794275
0.85206993
0.85483259
0.85726098
0.85927380
0.86090489
0.86256931
0.86377729
0.86444965
0.86402890
0.86226894
0.85968586
0.85811484
0.86038128
0.87011021
0.88818526
0.90952554
0.92648042
0.93645794
0.94128211
0.94367771
0.94494881
0.94599765
0.94692822
0.94797107
0.94899371
0.95001494
0.95094391
0.95196804
0.95286277
0.95374690
0.95456635
0.95529686
0.95599920
0.95659410
0.95713443
0.95770358
0.95816110
0.95862105
0.95905745
0.95955009
0.96012417
0.96090931
0.96214689
0.96434993
0.96844453
0.97511725
0.98309792
0.98897660
0.99180146
0.99280145
0.99305481
0.99307133
0.99302359
0.99297612
0.99295045
0.99294706
0.99297674
0.99304201
0.99317627
0.99337523
0.99367901
0.99409205
0.99459571
0.99510255
0.99540748
0.99527391
0.99456038
0.99328072
0.99146610
0.98920843
0.98719766
0.98699126
0.98967160
0.99399055
0.99752149
0.99918607
0.99976069
0.99993402
0.99998253
0.99999539
0.99999843
0.99999870
0.99999798
0.99999715
0.99999697
0.99999767
0.99999867
0.99999939
0.99999973
0.99999983
0.99999973
0.99999939
0.99999867
0.99999768
0.99999699
0.99999718
0.99999803
0.99999875
0.99999852
0.99999567
0.99998360
0.99993777
0.99977365
0.99922592
0.99762244
0.99414934
0.98981001
0.98700899
0.98712479
0.98917976
0.99154245
0.99349485
0.99491833
0.99571283
0.99579863
0.99534480
0.99469197
0.99410194
0.99364217
0.99332754
0.99313294
0.99301232
0.99294808
0.99292370
0.99292093
0.99295335
0.99300511
0.99305353
0.99305773
0.99282418
0.99192939
0.98935949
0.98376390
0.97584413
0.96893986
0.96465165
0.96230539
0.96104224
0.96024134
0.95968036
0.95922879
0.95876794
0.95832848
0.95785986
0.95732477
0.95680115
0.95613313
0.95546442
0.95472584
0.95390202
0.95305634
0.95215522
0.95116371
0.95014905
0.94914538
0.94809601
0.94712847
0.94614198
0.94509914
0.94381851
0.94150610
0.93680454
0.92716711
0.91050513
0.88898796
0.87044366
0.86034763
0.85765419
0.85943896
0.86221047
0.86415219
0.86487164
0.86442662
0.86334297
0.86172115
0.86003499
0.85811616
0.85562906
0.85257317
0.84854989
0.84287112
0.83476012
0.82231682
0.80175525
0.76639571
0.70743901
0.62510348
0.53358977
0.44556225
0.35847986
0.26641794
0.17082317
0.08899703
0.03817880
0.01463840
0.00532071
0.00188126
0.00065507
0.00022541
0.00007675
0.00002591
0.00000869
0.00000290
0.00000096
0.00000032
0.00000010
0.00000003
0.00000001
0.00000000
0.00000000
0.00000000
0.00000000
0.00000000
0.00000000
0.00000000
0.00000000
0.00000000
0.00000000
0.00000000
0.00000000
0.00000000
0.00000000
0.00000000
0.00000000
0.00000000
0.00000000
0.00000000
0.00000000
0.00000000
0.00000000
0.00000000
0.00000000
0.00000000
0.00000000
0.00000000
0.00000000
0.00000000
0.00000000
0.00000000
0.00000000
0.00000000
0.00000000
0.00000000
0.00000000
0.00000000
0.00000000
0.00000000
0.00000000
0.00000000
0.00000000
0.00000000
0.00000000
0.00000000
0.00000000
0.00000000
0.00000000
0.00000000
0.00000000
0.00000000
0.00000000
0.00000000
0.00000000
0.00000000
0.00000000
0.00000000
0.00000000
0.00000000
0.00000000
0.00000001
0.00000002
0.00000006
0.00000017
0.00000054
0.00000168
0.00000521
0.00001608
0.00004953
0.00015222
0.00046641
0.00142517
0.00432791
0.01301494
0.03810810
0.10377636
0.23496462
0.39864802
0.54711250
0.68082681
0.78831577
0.85846212
0.90249073
0.93140544
0.94932055
0.95950290
0.96526321
0.96875987
0.97094670
0.97243405
0.97352651
0.97431331
0.97495451
0.97549155
0.97590523
0.97632060
0.97664999
0.97682757
0.97680370
0.97651292
0.97610119
0.97585078
0.97621387
0.97781396
0.98078045
0.98428849
0.98713160
0.98886649
0.98973659
0.99017777
0.99040879
0.99061068
0.99079132
0.99097874
0.99116922
0.99136080
0.99154420
0.99172912
0.99190570
0.99207499
0.99222771
0.99236625
0.99250392
0.99262235
0.99272637
0.99283269
0.99292557
0.99300987
0.99309779
0.99318426
0.99329615
0.99344385
0.99367648
0.99407817
0.99478714
0.99589130
0.99717089
0.99812604
0.99860925
0.99879299
0.99884444
0.99885010
0.99884225
0.99883470
0.99882901
0.99882797
0.99883126
0.99884034
0.99885829
0.99888221
0.99890621
0.99891140
0.99888196
0.99881985
0.99881297
0.99887811
0.99887889
0.99872727
0.99841443
0.99799317
0.99760653
0.99754289
0.99800473
0.99878706
0.99946016
0.99980579
0.99993790
0.99998151
0.99999456
0.99999782
0.99999760
0.99999508
0.99999036
0.99998545
0.99998429
0.99998807
0.99999342
0.99999714
0.99999881
0.99999926
0.99999881
0.99999713
0.99999341
0.99998808
0.99998438
0.99998562
0.99999053
0.99999522
0.99999770
0.99999796
0.99999494
0.99998271
0.99994164
0.99981625
0.99948462
0.99882642
0.99804095
0.99755892
0.99760405
0.99799586
0.99843371
0.99876521
0.99893389
0.99892393
0.99882891
0.99881692
0.99887362
0.99890241
0.99889712
0.99887241
0.99884979
0.99883427
0.99882559
0.99882343
0.99882498
0.99883015
0.99883961
0.99884716
0.99884446
0.99879930
0.99863276
0.99818865
0.99727652
0.99600967
0.99487815
0.99413219
0.99370872
0.99346550
0.99331888
0.99321299
0.99312741
0.99304390
0.99295246
0.99286823
0.99276224
0.99265580
0.99252893
0.99240965
0.99226168
0.99210825
0.99194886
0.99177191
0.99158298
0.99139499
0.99120514
0.99100618
0.99082214
0.99064100
0.99043922
0.99020174
0.98977463
0.98892235
0.98723413
0.98444475
0.98092844
0.97788231
0.97619113
0.97576109
0.97606449
0.97651541
0.97680636
0.97686889
0.97674351
0.97644556
0.97603184
0.97561158
0.97508441
0.97442723
0.97357343
0.97248672
0.97093341
0.96863242
0.96505547
0.95891560
0.94807328
0.92908284
0.89860971
0.85209880
0.77766692
0.66595389
0.53091511
0.38032056
0.21660155
0.09274029
0.03358135
0.01140049
0.00378215
0.00124432
0.00040720
0.00013285
0.00004315
0.00001400
0.00000453
0.00000146
0.00000047
0.00000015
0.00000005
0.00000002
0.00000001
0.00000000
0.00000000
0.00000000
0.00000000
0.00000000
0.00000000
0.00000000
0.00000000
0.00000000
0.00000000
0.00000000
0.00000000
0.00000000
0.00000000
0.00000000
0.00000000
0.00000000
0.00000000
0.00000000
0.00000000
0.00000000
0.00000000
0.00000000
0.00000000
0.00000000
0.00000000
0.00000000
0.00000000
0.00000000
0.00000000
0.00000000
0.00000000
0.00000000
0.00000000
0.00000000
0.00000000
0.00000000
0.00000000
0.00000000
0.00000000
0.00000000
0.00000000
0.00000000
0.00000000
0.00000000
0.00000000
0.00000000
0.00000000
0.00000000
0.00000000
0.00000000
0.00000000
0.00000000
0.00000000
0.00000000
0.00000000
0.00000000
0.00000000
0.00000000
0.00000001
0.00000002
0.00000007
0.00000023
0.00000074
0.00000234
0.00000743
0.00002361
0.00007516
0.00023941
0.00076527
0.00245325
0.00787219
0.02516981
0.07794961
0.21476489
0.43554812
0.62562705
0.77444519
0.87612229
0.93301773
0.96158349
0.97621768
0.98438332
0.98910109
0.99174453
0.99323056
0.99410441
0.99465071
0.99503286
0.99530058
0.99549901
0.99565528
0.99578640
0.99588841
0.99598759
0.99605788
0.99610639
0.99611115
0.99607683
0.99601687
0.99598183
0.99604534
0.99630250
0.99676996
0.99732573
0.99778925
0.99807866
0.99823285
0.99830893
0.99835329
0.99838989
0.99842109
0.99845605
0.99848980
0.99852552
0.99855851
0.99859157
0.99862539
0.99865515
0.99868290
0.99871023
0.99873404
0.99875670
0.99877591
0.99879486
0.99881168
0.99882871
0.99884417
0.99886026
0.99888110
0.99890876
0.99894981
0.99902195
0.99914272
0.99932310
0.99952751
0.99968215
0.99976433
0.99979772
0.99980786
0.99980934
0.99980827
0.99980693
0.99980593
0.99980540
0.99980502
0.99980358
0.99979558
0.99976163
0.99964188
0.99930569
0.99859196
0.99772863
0.99740952
0.99807569
0.99896150
0.99946386
0.99960735
0.99959256
0.99953682
0.99952475
0.99960652
0.99975118
0.99988134
0.99995381
0.99998404
0.99999465
0.99999746
0.99999644
0.99999107
0.99997770
0.99995281
0.99992561
0.99991826
0.99993861
0.99996746
0.99998661
0.99999480
0.99999688
0.99999477
0.99998656
0.99996741
0.99993866
0.99991863
0.99992623
0.99995351
0.99997825
0.99999140
0.99999662
0.99999764
0.99999505
0.99998514
0.99995667
0.99988748
0.99976085
0.99961673
0.99953163
0.99953964
0.99959470
0.99960826
0.99945836
0.99891220
0.99791678
0.99711331
0.99746085
0.99845839
0.99925584
0.99962647
0.99975613
0.99979334
0.99980208
0.99980398
0.99980446
0.99980509
0.99980627
0.99980771
0.99980890
0.99980766
0.99979882
0.99976849
0.99969222
0.99954398
0.99934238
0.99915757
0.99903113
0.99895674
0.99891348
0.99888629
0.99886611
0.99885007
0.99883390
0.99881781
0.99880190
0.99878179
0.99876287
0.99874032
0.99871565
0.99869059
0.99866227
0.99863267
0.99860015
0.99856657
0.99853206
0.99849732
0.99846185
0.99842815
0.99839260
0.99835964
0.99831529
0.99823987
0.99808989
0.99780298
0.99734758
0.99679177
0.99631398
0.99604116
0.99596857
0.99600908
0.99607559
0.99611643
0.99611402
0.99607004
0.99600355
0.99590752
0.99580105
0.99567113
0.99550743
0.99529989
0.99502474
0.99463616
0.99406160
0.99314822
0.99157646
0.98876518
0.98372671
0.97496976
0.95919928
0.92805576
0.86674638
0.75934302
0.60591735
0.40912753
0.19241523
0.06821735
0.02186863
0.00682758
0.00212610
0.00066296
0.00020741
0.00006504
0.00002046
0.00000644
0.00000203
0.00000064
0.00000020
0.00000006
0.00000002
0.00000001
0.00000000
0.00000000
0.00000000
0.00000000
0.00000000
0.00000000
0.00000000
0.00000000
0.00000000
0.00000000
0.00000000
0.00000000
0.00000000
0.00000000
0.00000000
0.00000000
0.00000000
0.00000000
0.00000000
0.00000000
0.00000000
0.00000000
0.00000000
0.00000000
0.00000000
0.00000000
0.00000000
0.00000000
0.00000000
0.00000000
0.00000000
0.00000000
0.00000000
0.00000000
0.00000000
0.00000000
0.00000000
0.00000000
0.00000000
0.00000000
0.00000000
0.00000000
0.00000000
0.00000000
0.00000000
0.00000000
0.00000000
0.00000000
0.00000000
0.00000000
0.00000000
0.00000000
0.00000000
0.00000000
0.00000000
0.00000000
0.00000000
0.00000000
0.00000000
0.00000001
0.00000003
0.00000009
0.00000028
0.00000090
0.00000291
0.00000940
0.00003054
0.00009964
0.00032700
0.00108072
0.00360325
0.01210512
0.04066665
0.13053033
0.34832924
0.60694189
0.78084246
0.89205612
0.95014518
0.97671217
0.98834476
0.99358815
0.99614518
0.99749251
0.99821473
0.99861002
0.99883814
0.99897828
0.99907326
0.99914107
0.99919023
0.99922862
0.99925993
0.99928512
0.99930707
0.99932390
0.99933560
0.99933958
0.99933645
0.99932861
0.99932519
0.99933714
0.99937923
0.99945377
0.99954303
0.99961898
0.99966804
0.99969479
0.99970876
0.99971697
0.99972348
0.99972917
0.99973548
0.99974164
0.99974789
0.99975397
0.99975990
0.99976572
0.99977139
0.99977631
0.99978136
0.99978557
0.99978989
0.99979345
0.99979687
0.99980001
0.99980315
0.99980603
0.99980903
0.99981290
0.99981782
0.99982530
0.99983797
0.99985841
0.99988810
0.99992082
0.99994603
0.99996002
0.99996603
0.99996798
0.99996838
0.99996823
0.99996799
0.99996767
0.99996703
0.99996433
0.99995249
0.99990797
0.99972137
0.99904199
0.99702691
0.99277579
0.98743122
0.98544552
0.98979591
0.99528736
0.99841742
0.99950668
0.99980949
0.99987917
0.99989934
0.99991930
0.99994766
0.99997358
0.99998893
0.99999565
0.99999749
0.99999567
0.99998740
0.99996255
0.99989852
0.99976889
0.99961789
0.99957228
0.99968335
0.99983910
0.99993795
0.99997760
0.99998719
0.99997748
0.99993767
0.99983867
0.99968312
0.99957325
0.99961994
0.99977186
0.99990073
0.99996376
0.99998795
0.99999592
0.99999768
0.99999599
0.99998972
0.99997519
0.99995016
0.99992207
0.99990148
0.99988044
0.99980900
0.99949514
0.99835481
0.99499398
0.98883486
0.98356555
0.98579032
0.99201312
0.99675829
0.99896611
0.99970236
0.99990380
0.99995139
0.99996391
0.99996682
0.99996756
0.99996787
0.99996811
0.99996828
0.99996794
0.99996620
0.99996073
0.99994764
0.99992348
0.99989107
0.99986099
0.99983949
0.99982651
0.99981875
0.99981373
0.99981014
0.99980694
0.99980416
0.99980125
0.99979813
0.99979475
0.99979125
0.99978710
0.99978269
0.99977805
0.99977289
0.99976752
0.99976158
0.99975539
0.99974909
0.99974315
0.99973651
0.99973047
0.99972417
0.99971822
0.99970976
0.99969628
0.99967004
0.99962170
0.99954687
0.99945724
0.99938094
0.99933623
0.99932274
0.99932736
0.99933621
0.99934003
0.99933682
0.99932526
0.99930877
0.99928752
0.99926220
0.99922975
0.99918963
0.99913866
0.99907043
0.99897282
0.99882501
0.99858539
0.99816482
0.99739164
0.99594591
0.99315898
0.98740336
0.97454238
0.94525051
0.88181612
0.76290105
0.58098614
0.31514053
0.11379133
0.03510384
0.01043989
0.00310515
0.00093231
0.00028198
0.00008598
0.00002637
0.00000813
0.00000252
0.00000078
0.00000024
0.00000008
0.00000002
0.00000001
0.00000000
0.00000000
0.00000000
0.00000000
0.00000000
0.00000000
0.00000000
0.00000000
0.00000000
0.00000000
0.00000000
0.00000000
0.00000000
0.00000000
0.00000000
0.00000000
0.00000000
0.00000000
0.00000000
0.00000000
0.00000000
0.00000000
0.00000000
0.00000000
0.00000000
0.00000000
0.00000000
0.00000000
0.00000000
0.00000000
0.00000000
0.00000000
0.00000000
0.00000000
0.00000000
0.00000000
0.00000000
0.00000000
0.00000000
0.00000000
0.00000000
0.00000000
0.00000000
0.00000000
0.00000000
0.00000000
0.00000000
0.00000000
0.00000000
0.00000000
0.00000000
0.00000000
0.00000000
0.00000000
0.00000000
0.00000000