# vtk DataFile Version 3.0
Concentration output
ASCII
DATASET STRUCTURED_POINTS
DIMENSIONS 298 298 1
ORIGIN 0 0 0
SPACING 0.03 0.03 1.0
POINT_DATA 88804
SCALARS Variable float 1
LOOKUP_TABLE default
0.00000000
0.00000000
0.00000000
0.00000000
0.00000000
0.00000000
0.00000000
0.00000000
0.00000001
0.00000003
0.00000008
0.00000022
0.00000054
0.00000134
0.00000324
0.00000762
0.00001739
0.00003834
0.00008092
0.00016222
0.00030461
0.00052769
0.00082858
0.00115583
0.00142289
0.00154705
0.00149914
0.00132742
0.00110223
0.00088240
0.00069349
0.00054991
0.00044499
0.00037230
0.00032183
0.00028666
0.00026187
0.00024447
0.00023162
0.00022271
0.00021593
0.00021173
0.00020881
0.00020712
0.00020667
0.00020697
0.00020777
0.00020920
0.00021136
0.00021380
0.00021682
0.00021984
0.00022319
0.00022684
0.00023050
0.00023456
0.00023831
0.00024238
0.00024624
0.00024947
0.00025242
0.00025482
0.00025638
0.00025623
0.00025448
0.00025160
0.00024704
0.00024136
0.00023516
0.00022873
0.00022407
0.00022409
0.00023633
0.00027757
0.00037062
0.00052625
0.00069964
0.00081992
0.00086993
0.00087403
0.00085846
0.00083866
0.00082152
0.00080858
0.00080101
0.00079671
0.00079492
0.00079819
0.00080186
0.00080756
0.00081576
0.00082421
0.00083338
0.00084252
0.00085362
0.00086607
0.00087976
0.00089322
0.00090911
0.00092594
0.00094712
0.00097494
0.00101300
0.00108432
0.00124929
0.00164495
0.00248432
0.00379883
0.00508016
0.00588023
0.00622531
0.00631919
0.00630705
0.00625505
0.00619464
0.00613471
0.00607659
0.00601647
0.00594162
0.00585797
0.00575998
0.00564957
0.00551326
0.00535934
0.00518286
0.00495279
0.00467824
0.00434267
0.00398601
0.00372773
0.00384935
0.00535247
0.01306756
0.05207967
0.24118582
0.78399035
0.95906113
0.99275974
0.99872752
0.99977573
0.99996029
0.99999293
0.99999874
0.99999977
0.99999996
0.99999999
1.00000000
1.00000000
1.00000000
1.00000000
1.00000000
1.00000000
1.00000000
0.99999999
0.99999996
0.99999978
0.99999878
0.99999319
0.99996173
0.99978360
0.99876966
0.99298937
0.96034374
0.78985569
0.24963631
0.05434115
0.01363177
0.00556628
0.00400716
0.00387849
0.00411975
0.00444845
0.00476264
0.00502878
0.00525894
0.00544101
0.00559302
0.00572613
0.00583175
0.00591564
0.00598500
0.00604414
0.00610379
0.00615426
0.00620175
0.00625125
0.00630808
0.00633054
0.00624590
0.00593064
0.00517324
0.00391590
0.00258183
0.00169577
0.00127239
0.00109447
0.00101731
0.00097788
0.00095048
0.00093067
0.00091315
0.00089792
0.00088512
0.00087184
0.00086032
0.00084979
0.00083942
0.00082960
0.00082151
0.00081425
0.00080843
0.00080368
0.00080220
0.00080243
0.00080657
0.00081390
0.00082644
0.00084323
0.00086171
0.00087774
0.00087393
0.00082671
0.00071017
0.00053755
0.00037929
0.00028212
0.00023882
0.00022510
0.00022478
0.00022975
0.00023644
0.00024306
0.00024908
0.00025414
0.00025744
0.00025901
0.00025907
0.00025765
0.00025519
0.00025205
0.00024801
0.00024436
0.00024012
0.00023589
0.00023184
0.00022793
0.00022422
0.00022081
0.00021743
0.00021458
0.00021242
0.00021024
0.00020894
0.00020846
0.00020847
0.00020920
0.00021090
0.00021399
0.00021843
0.00022501
0.00023393
0.00024684
0.00026469
0.00029017
0.00032652
0.00037961
0.00045648
0.00056725
0.00071891
0.00091204
0.00113587
0.00135477
0.00151548
0.00154420
0.00139878
0.00111624
0.00078651
0.00049520
0.00028282
0.00014933
0.00007393
0.00003482
0.00001573
0.00000686
0.00000291
0.00000120
0.00000049
0.00000019
0.00000008
0.00000003
0.00000001
0.00000000
0.00000000
0.00000000
0.00000000
0.00000000
0.00000000
0.00000000
0.00000000
0.00000000
0.00000000
0.00000000
0.00000000
0.00000000
0.00000000
0.00000001
0.00000002
0.00000005
0.00000013
0.00000033
0.00000085
0.00000216
0.00000537
0.00001305
0.00003083
0.00007058
0.00015508
0.00032444
0.00063622
0.00114611
0.00185590
0.00264681
0.00330833
0.00364609
0.00361891
0.00332742
0.00290747
0.00248346
0.00210544
0.00180902
0.00158810
0.00143083
0.00131984
0.00123979
0.00118140
0.00114090
0.00110986
0.00108738
0.00107247
0.00106404
0.00105908
0.00105749
0.00106088
0.00106608
0.00107312
0.00108233
0.00109363
0.00110780
0.00112206
0.00113809
0.00115395
0.00117214
0.00119130
0.00120923
0.00122808
0.00124746
0.00126542
0.00128198
0.00129641
0.00130924
0.00131667
0.00131610
0.00130779
0.00129572
0.00127473
0.00124638
0.00121689
0.00118676
0.00116481
0.00116301
0.00122165
0.00142659
0.00191975
0.00279301
0.00378571
0.00446076
0.00473871
0.00476956
0.00469081
0.00459559
0.00451518
0.00444813
0.00441467
0.00439120
0.00438858
0.00440412
0.00442442
0.00445353
0.00449508
0.00453436
0.00457863
0.00462468
0.00467750
0.00473526
0.00480018
0.00487075
0.00494450
0.00502691
0.00512936
0.00525279
0.00542994
0.00575976
0.00651959
0.00846484
0.01288312
0.02015469
0.02718497
0.03138483
0.03309606
0.03353525
0.03349970
0.03325021
0.03299859
0.03270856
0.03245144
0.03217042
0.03184254
0.03144955
0.03101663
0.03046157
0.02984625
0.02912611
0.02824866
0.02714780
0.02578798
0.02406691
0.02214980
0.02069275
0.02082822
0.02534325
0.04623834
0.13527207
0.44147745
0.86294887
0.97401680
0.99528596
0.99914854
0.99984621
0.99997213
0.99999494
0.99999908
0.99999983
0.99999997
0.99999999
1.00000000
1.00000000
1.00000000
1.00000000
1.00000000
1.00000000
1.00000000
0.99999999
0.99999997
0.99999984
0.99999911
0.99999514
0.99997323
0.99985224
0.99918213
0.99546965
0.97503512
0.86823208
0.45664973
0.14151047
0.04820334
0.02631632
0.02172473
0.02157202
0.02287895
0.02461114
0.02623531
0.02754056
0.02865945
0.02948570
0.03020681
0.03081297
0.03130724
0.03170737
0.03203972
0.03232520
0.03258632
0.03281657
0.03303432
0.03324068
0.03346768
0.03358544
0.03318965
0.03161886
0.02765035
0.02080156
0.01341379
0.00872560
0.00663296
0.00580758
0.00545131
0.00526841
0.00514856
0.00504802
0.00496826
0.00489534
0.00483017
0.00476696
0.00471350
0.00466157
0.00461131
0.00456193
0.00452232
0.00448636
0.00445970
0.00443310
0.00442119
0.00442213
0.00443656
0.00447324
0.00453724
0.00462040
0.00470896
0.00478590
0.00476130
0.00449535
0.00384217
0.00285964
0.00196496
0.00144964
0.00123399
0.00116845
0.00116905
0.00119174
0.00122404
0.00125470
0.00128292
0.00130616
0.00132200
0.00132828
0.00132895
0.00132152
0.00130921
0.00129354
0.00127497
0.00125645
0.00123665
0.00121621
0.00119647
0.00117597
0.00115882
0.00114209
0.00112536
0.00111113
0.00109772
0.00108703
0.00107709
0.00107212
0.00106773
0.00106575
0.00106690
0.00107212
0.00108176
0.00109695
0.00111770
0.00114736
0.00118822
0.00124586
0.00132955
0.00144568
0.00161239
0.00184761
0.00216054
0.00254669
0.00297981
0.00338108
0.00364379
0.00362743
0.00324217
0.00254889
0.00175676
0.00107026
0.00058708
0.00029700
0.00014099
0.00006381
0.00002776
0.00001170
0.00000480
0.00000192
0.00000076
0.00000029
0.00000011
0.00000004
0.00000002
0.00000001
0.00000000
0.00000000
0.00000000
0.00000000
0.00000000
0.00000000
0.00000000
0.00000000
0.00000000
0.00000000
0.00000000
0.00000000
0.00000000
0.00000001
0.00000003
0.00000008
0.00000022
0.00000060
0.00000160
0.00000418
0.00001077
0.00002717
0.00006686
0.00015974
0.00036729
0.00080524
0.00165320
0.00310446
0.00519416
0.00757491
0.00960100
0.01078765
0.01101872
0.01058314
0.00977694
0.00891836
0.00813454
0.00751272
0.00706572
0.00677710
0.00658164
0.00645137
0.00636595
0.00630337
0.00625957
0.00623440
0.00622207
0.00622162
0.00623827
0.00626351
0.00630623
0.00634769
0.00640445
0.00646693
0.00654401
0.00662800
0.00670830
0.00679738
0.00689624
0.00700064
0.00709972
0.00720217
0.00730643
0.00742014
0.00752142
0.00760534
0.00768313
0.00775555
0.00779747
0.00780201
0.00775917
0.00769595
0.00758141
0.00743194
0.00726571
0.00711218
0.00698502
0.00697592
0.00728207
0.00844327
0.01141967
0.01696557
0.02342950
0.02771887
0.02943573
0.02965765
0.02925029
0.02871872
0.02828170
0.02793567
0.02772122
0.02760434
0.02761078
0.02767265
0.02782418
0.02799967
0.02819662
0.02844270
0.02871091
0.02894680
0.02924769
0.02957070
0.02990991
0.03028990
0.03070431
0.03114561
0.03165351
0.03232633
0.03327192
0.03496212
0.03890322
0.04944923
0.07519932
0.11886386
0.15994222
0.18274586
0.19150827
0.19377978
0.19340741
0.19261797
0.19139583
0.18993872
0.18883739
0.18741812
0.18597210
0.18420598
0.18204133
0.17958494
0.17651653
0.17301049
0.16862160
0.16327070
0.15609727
0.14667658
0.13611488
0.12735084
0.12720762
0.14560728
0.21512419
0.43169811
0.77568465
0.94860542
0.98971556
0.99800459
0.99961732
0.99992690
0.99998608
0.99999736
0.99999950
0.99999990
0.99999997
0.99999999
0.99999999
1.00000000
1.00000000
1.00000000
1.00000000
1.00000000
0.99999999
0.99999999
0.99999997
0.99999990
0.99999952
0.99999747
0.99998671
0.99993015
0.99963408
0.99809418
0.99018941
0.95105764
0.78542182
0.44617830
0.22257187
0.15072099
0.13256247
0.13272675
0.14031969
0.14983278
0.15844094
0.16525844
0.17068194
0.17484921
0.17830663
0.18115437
0.18355121
0.18533717
0.18701177
0.18825989
0.18933635
0.19029773
0.19138623
0.19235419
0.19337707
0.19386737
0.19189776
0.18391523
0.16249614
0.12279733
0.07823519
0.05090701
0.03951965
0.03521316
0.03340339
0.03243412
0.03177143
0.03122530
0.03080183
0.03041114
0.03004660
0.02973370
0.02943226
0.02913525
0.02885304
0.02859512
0.02838471
0.02816907
0.02800123
0.02784560
0.02778795
0.02779802
0.02787649
0.02806776
0.02841614
0.02885881
0.02937832
0.02977067
0.02958499
0.02794370
0.02377871
0.01741093
0.01170714
0.00857568
0.00734677
0.00700151
0.00700670
0.00713215
0.00730603
0.00747848
0.00762727
0.00775526
0.00783892
0.00787314
0.00787546
0.00782909
0.00776325
0.00767315
0.00756304
0.00746386
0.00734930
0.00723625
0.00713290
0.00701616
0.00691432
0.00682335
0.00672939
0.00664805
0.00656398
0.00649400
0.00642503
0.00637974
0.00633920
0.00630197
0.00628037
0.00626121
0.00626142
0.00627103
0.00628366
0.00632119
0.00637067
0.00645542
0.00658775
0.00679586
0.00712742
0.00761804
0.00826682
0.00907831
0.00994748
0.01069588
0.01105820
0.01071413
0.00940032
0.00727220
0.00490252
0.00288796
0.00151831
0.00073356
0.00033209
0.00014360
0.00005991
0.00002426
0.00000958
0.00000371
0.00000141
0.00000053
0.00000020
0.00000007
0.00000003
0.00000001
0.00000000
0.00000000
0.00000000
0.00000000
0.00000000
0.00000000
0.00000000
0.00000000
0.00000000
0.00000000
0.00000000
0.00000000
0.00000001
0.00000002
0.00000005
0.00000014
0.00000041
0.00000113
0.00000310
0.00000842
0.00002247
0.00005874
0.00015062
0.00037579
0.00090522
0.00208254
0.00448488
0.00878658
0.01512260
0.02251094
0.02901192
0.03335779
0.03534134
0.03573561
0.03519214
0.03441729
0.03368344
0.03332251
0.03334900
0.03372007
0.03421464
0.03469892
0.03514989
0.03550017
0.03579512
0.03606853
0.03629485
0.03655623
0.03683677
0.03708786
0.03740859
0.03774026
0.03811713
0.03851422
0.03896258
0.03945032
0.03988351
0.04037976
0.04091415
0.04146863
0.04203971
0.04258198
0.04313567
0.04374808
0.04427454
0.04478004
0.04517598
0.04555698
0.04576602
0.04584347
0.04560897
0.04527160
0.04467229
0.04390176
0.04304390
0.04223296
0.04154989
0.04148040
0.04310817
0.04938362
0.06660249
0.10030311
0.13956791
0.16484488
0.17456888
0.17591809
0.17407312
0.17145839
0.16928643
0.16764684
0.16658329
0.16595415
0.16601061
0.16660378
0.16730113
0.16816575
0.16916800
0.17024541
0.17156039
0.17275717
0.17432241
0.17585565
0.17745199
0.17921103
0.18114756
0.18323648
0.18561107
0.18865373
0.19288260
0.20043308
0.21730068
0.26381929
0.38035187
0.56534628
0.70171816
0.75752834
0.77446832
0.77817732
0.77810680
0.77704420
0.77547829
0.77382003
0.77235636
0.77015539
0.76827617
0.76540082
0.76218296
0.75825259
0.75324767
0.74709908
0.73873639
0.72736829
0.71019588
0.68525061
0.65256675
0.62299667
0.62094464
0.66487475
0.74945447
0.85622248
0.94798078
0.98690413
0.99706719
0.99937308
0.99986961
0.99997331
0.99999460
0.99999891
0.99999976
0.99999991
0.99999994
0.99999995
0.99999997
0.99999998
0.99999999
0.99999999
0.99999999
0.99999998
0.99999997
0.99999995
0.99999994
0.99999991
0.99999977
0.99999896
0.99999485
0.99997458
0.99987571
0.99940309
0.99720649
0.98754545
0.95043117
0.86188177
0.75794519
0.67926770
0.64067366
0.64277716
0.66714985
0.69444865
0.71630939
0.73166487
0.74248537
0.75033135
0.75596805
0.76066421
0.76429351
0.76724947
0.76959637
0.77119373
0.77289530
0.77431041
0.77562577
0.77686050
0.77794247
0.77818913
0.77483295
0.75993768
0.70909968
0.58030664
0.39450895
0.27015464
0.21991711
0.20142928
0.19350760
0.18929573
0.18616122
0.18374938
0.18170454
0.17975299
0.17810666
0.17662758
0.17511743
0.17373363
0.17245986
0.17106906
0.17011078
0.16888512
0.16811003
0.16739777
0.16691732
0.16706620
0.16735684
0.16837294
0.17000005
0.17214883
0.17467583
0.17647228
0.17522171
0.16598732
0.14179853
0.10296598
0.06825391
0.05012011
0.04342576
0.04166047
0.04165906
0.04233668
0.04321874
0.04416987
0.04496722
0.04557849
0.04604504
0.04618367
0.04616357
0.04588018
0.04559384
0.04504976
0.04450984
0.04395870
0.04336639
0.04278670
0.04214814
0.04157076
0.04103659
0.04049721
0.03999064
0.03949566
0.03905911
0.03860260
0.03821195
0.03791271
0.03757813
0.03727164
0.03701736
0.03671276
0.03648147
0.03617062
0.03585710
0.03552734
0.03508891
0.03461148
0.03408852
0.03366159
0.03344556
0.03355461
0.03399920
0.03474321
0.03549325
0.03587660
0.03532077
0.03295412
0.02832172
0.02155584
0.01424621
0.00813231
0.00409761
0.00188521
0.00081420
0.00033633
0.00013434
0.00005230
0.00001988
0.00000744
0.00000273
0.00000099
0.00000036
0.00000013
0.00000004
0.00000002
0.00000001
0.00000000
0.00000000
0.00000000
0.00000000
0.00000000
0.00000000
0.00000000
0.00000000
0.00000000
0.00000000
0.00000000
0.00000001
0.00000003
0.00000009
0.00000025
0.00000073
0.00000210
0.00000594
0.00001666
0.00004603
0.00012518
0.00033477
0.00087573
0.00221870
0.00538992
0.01225658
0.02509255
0.04429762
0.06683712
0.08746857
0.10349775
0.11538847
0.12449695
0.13188544
0.13871702
0.14539621
0.15310334
0.16153354
0.17004528
0.17768695
0.18418276
0.18944034
0.19361797
0.19680382
0.19954455
0.20168820
0.20375742
0.20554878
0.20744770
0.20927012
0.21116372
0.21297849
0.21497975
0.21703943
0.21921534
0.22131777
0.22362812
0.22605425
0.22833398
0.23086362
0.23345396
0.23585867
0.23831129
0.24065731
0.24289506
0.24462727
0.24646288
0.24723271
0.24752137
0.24677227
0.24531371
0.24279781
0.23951262
0.23579777
0.23206908
0.22924103
0.22889331
0.23577617
0.26303833
0.34076758
0.49146643
0.64350550
0.72169060
0.74700775
0.75126011
0.74879293
0.74425399
0.74034901
0.73712090
0.73516038
0.73415667
0.73432314
0.73524244
0.73660304
0.73825409
0.74027361
0.74244841
0.74480096
0.74722427
0.74974314
0.75217663
0.75506005
0.75797796
0.76086972
0.76406605
0.76740882
0.77159671
0.77683803
0.78461780
0.79804692
0.82341810
0.86478331
0.91199510
0.94259471
0.95528036
0.95927659
0.96022109
0.96022188
0.95998451
0.95961943
0.95926705
0.95884976
0.95834299
0.95788132
0.95720499
0.95642952
0.95546867
0.95418406
0.95273587
0.95071271
0.94802041
0.94398883
0.93811189
0.93053945
0.92376573
0.92315468
0.93294247
0.95109985
0.97250978
0.98957201
0.99706291
0.99927007
0.99982972
0.99996182
0.99999166
0.99999819
0.99999956
0.99999976
0.99999972
0.99999969
0.99999973
0.99999983
0.99999992
0.99999996
0.99999997
0.99999996
0.99999992
0.99999983
0.99999973
0.99999969
0.99999973
0.99999977
0.99999957
0.99999828
0.99999206
0.99996365
0.99983790
0.99930526
0.99720885
0.99005907
0.97368187
0.95305134
0.93623779
0.92769605
0.92825526
0.93392070
0.94024185
0.94540418
0.94903449
0.95159769
0.95346348
0.95488220
0.95599829
0.95687297
0.95761729
0.95816297
0.95862344
0.95899762
0.95934553
0.95964343
0.95995202
0.96021441
0.96023948
0.95937579
0.95580396
0.94425833
0.91540784
0.86877952
0.82620679
0.80004527
0.78569625
0.77756803
0.77223265
0.76819837
0.76478992
0.76170956
0.75892705
0.75607737
0.75368150
0.75146541
0.74871854
0.74642223
0.74416651
0.74210392
0.74014483
0.73858860
0.73720652
0.73637945
0.73623932
0.73699688
0.73882789
0.74164734
0.74577764
0.74991408
0.75233853
0.74857523
0.72492365
0.65113059
0.50286479
0.34864134
0.26635234
0.23702055
0.22973226
0.22985534
0.23263198
0.23666262
0.24054035
0.24395111
0.24674760
0.24858500
0.24915746
0.24900770
0.24790790
0.24631815
0.24413834
0.24175642
0.23910995
0.23666125
0.23409979
0.23134659
0.22874483
0.22629657
0.22402805
0.22170608
0.21948107
0.21740940
0.21535985
0.21335888
0.21165534
0.20996518
0.20794908
0.20634112
0.20440151
0.20228731
0.19992808
0.19691230
0.19345578
0.18892465
0.18327970
0.17664469
0.16891150
0.16095095
0.15309938
0.14572678
0.13885997
0.13182287
0.12381415
0.11426449
0.10183352
0.08511751
0.06396130
0.04160289
0.02311033
0.01113313
0.00484702
0.00198152
0.00077923
0.00029721
0.00011098
0.00004063
0.00001465
0.00000522
0.00000184
0.00000064
0.00000022
0.00000008
0.00000003
0.00000001
0.00000000
0.00000000
0.00000000
0.00000000
0.00000000
0.00000000
0.00000000
0.00000000
0.00000000
0.00000000
0.00000001
0.00000002
0.00000005
0.00000014
0.00000043
0.00000126
0.00000373
0.00001090
0.00003157
0.00009062
0.00025722
0.00072018
0.00198397
0.00533095
0.01376137
0.03317700
0.07045953
0.12528237
0.18711243
0.24521510
0.29910072
0.35216838
0.40392609
0.45449301
0.50360733
0.55162249
0.59853203
0.64328692
0.68160763
0.71162932
0.73335096
0.74897343
0.75990985
0.76797610
0.77380392
0.77807266
0.78200284
0.78506885
0.78785960
0.79046065
0.79289131
0.79497929
0.79725527
0.79939337
0.80147037
0.80352847
0.80571919
0.80761558
0.80954976
0.81143720
0.81339481
0.81518974
0.81682178
0.81840557
0.81977999
0.82095368
0.82203317
0.82259586
0.82284476
0.82243571
0.82152062
0.82008626
0.81789673
0.81560502
0.81306546
0.81108468
0.81035241
0.81391567
0.82652336
0.85424471
0.89492850
0.92955357
0.94699822
0.95285696
0.95395658
0.95337167
0.95235907
0.95139546
0.95068021
0.95019015
0.94994685
0.94995182
0.95018193
0.95046495
0.95087030
0.95136458
0.95187279
0.95239922
0.95298884
0.95351212
0.95410631
0.95478940
0.95543115
0.95616380
0.95691932
0.95767110
0.95862265
0.95984695
0.96156710
0.96444584
0.96939500
0.97686753
0.98485367
0.99007045
0.99237715
0.99315757
0.99335075
0.99335987
0.99331728
0.99324658
0.99317257
0.99308982
0.99298878
0.99289067
0.99274907
0.99258668
0.99238748
0.99213546
0.99182609
0.99143340
0.99090909
0.99015801
0.98907423
0.98770900
0.98651958
0.98641266
0.98809383
0.99126659
0.99501141
0.99798653
0.99937662
0.99983084
0.99995743
0.99998978
0.99999759
0.99999933
0.99999950
0.99999913
0.99999856
0.99999826
0.99999852
0.99999909
0.99999957
0.99999981
0.99999987
0.99999981
0.99999957
0.99999910
0.99999852
0.99999827
0.99999857
0.99999914
0.99999951
0.99999936
0.99999771
0.99999028
0.99995950
0.99983894
0.99940671
0.99807942
0.99522868
0.99164409
0.98870518
0.98721100
0.98731021
0.98831031
0.98946651
0.99042107
0.99110524
0.99159773
0.99196305
0.99225347
0.99249621
0.99267872
0.99282947
0.99294852
0.99304059
0.99311907
0.99318560
0.99325570
0.99330728
0.99335842
0.99335835
0.99318125
0.99248065
0.99035707
0.98541370
0.97754233
0.96992766
0.96480987
0.96180678
0.96002104
0.95879077
0.95786134
0.95705047
0.95632438
0.95573029
0.95506417
0.95449503
0.95390576
0.95335728
0.95281983
0.95226018
0.95180502
0.95132307
0.95097030
0.95066709
0.95049338
0.95047561
0.95065098
0.95106740
0.95173156
0.95270615
0.95366900
0.95421506
0.95327239
0.94775683
0.93128217
0.89758763
0.85662859
0.82794740
0.81487853
0.81110572
0.81149599
0.81364313
0.81630810
0.81860873
0.82069169
0.82236992
0.82341042
0.82374514
0.82361664
0.82291868
0.82187284
0.82061628
0.81914464
0.81746528
0.81554691
0.81372504
0.81186449
0.80995448
0.80790128
0.80589381
0.80374630
0.80183845
0.79970707
0.79763161
0.79541956
0.79343490
0.79109682
0.78856649
0.78579307
0.78260183
0.77873727
0.77381457
0.76759273
0.75896555
0.74737572
0.73082021
0.70789500
0.67763485
0.63943918
0.59574204
0.54905356
0.50030701
0.45037080
0.39849317
0.34599533
0.29275655
0.23809907
0.17902967
0.11755239
0.06467493
0.02993033
0.01227733
0.00472736
0.00175495
0.00063668
0.00022702
0.00007978
0.00002773
0.00000954
0.00000326
0.00000110
0.00000037
0.00000012
0.00000004
0.00000001
0.00000000
0.00000000
0.00000000
0.00000000
0.00000000
0.00000000
0.00000000
0.00000000
0.00000000
0.00000000
0.00000001
0.00000002
0.00000007
0.00000022
0.00000067
0.00000206
0.00000623
0.00001880
0.00005648
0.00016867
0.00050051
0.00147310
0.00429308
0.01228196
0.03385702
0.08588015
0.18218416
0.30552019
0.42558290
0.53842935
0.65179290
0.74940060
0.81450380
0.85294720
0.87700908
0.89452807
0.90918670
0.92186393
0.93244659
0.94060574
0.94650956
0.95077996
0.95377349
0.95595996
0.95762959
0.95886390
0.95993184
0.96078087
0.96154362
0.96224996
0.96285943
0.96342658
0.96400918
0.96455633
0.96503419
0.96553890
0.96602601
0.96647250
0.96688900
0.96735507
0.96778278
0.96815376
0.96854848
0.96890422
0.96918836
0.96944794
0.96965790
0.96978436
0.96984221
0.96978054
0.96959983
0.96927555
0.96881482
0.96834069
0.96784763
0.96740435
0.96724334
0.96792220
0.97026553
0.97517937
0.98202631
0.98779762
0.99082539
0.99191552
0.99214242
0.99203975
0.99184783
0.99167889
0.99153426
0.99144342
0.99139037
0.99139407
0.99143266
0.99148770
0.99156366
0.99164153
0.99174099
0.99184818
0.99195539
0.99205703
0.99216885
0.99229779
0.99241807
0.99256486
0.99270466
0.99284837
0.99302901
0.99325705
0.99357705
0.99409919
0.99495611
0.99618103
0.99745662
0.99831440
0.99871557
0.99886006
0.99889966
0.99890336
0.99889512
0.99888267
0.99886959
0.99885420
0.99883340
0.99881086
0.99877816
0.99873313
0.99866361
0.99856540
0.99846573
0.99839610
0.99834461
0.99825160
0.99808398
0.99785639
0.99765987
0.99764495
0.99792352
0.99846237
0.99910330
0.99961684
0.99987166
0.99996249
0.99998990
0.99999738
0.99999916
0.99999917
0.99999805
0.99999549
0.99999206
0.99999024
0.99999180
0.99999517
0.99999783
0.99999909
0.99999943
0.99999909
0.99999784
0.99999519
0.99999184
0.99999032
0.99999213
0.99999555
0.99999808
0.99999919
0.99999919
0.99999750
0.99999040
0.99996429
0.99987773
0.99963403
0.99914214
0.99853249
0.99803358
0.99778193
0.99779544
0.99796092
0.99815040
0.99829802
0.99837898
0.99842173
0.99848559
0.99858432
0.99867996
0.99874695
0.99879148
0.99882156
0.99884252
0.99885870
0.99887193
0.99888488
0.99889517
0.99890381
0.99890172
0.99886564
0.99873341
0.99836077
0.99754829
0.99629199
0.99504382
0.99416451
0.99362236
0.99329518
0.99305951
0.99288505
0.99273334
0.99259518
0.99247699
0.99235080
0.99224726
0.99213803
0.99202238
0.99192738
0.99182562
0.99174056
0.99165129
0.99157747
0.99152630
0.99149150
0.99149670
0.99153142
0.99161429
0.99174804
0.99192243
0.99210227
0.99219624
0.99200421
0.99097258
0.98808968
0.98248018
0.97562078
0.97056794
0.96810081
0.96739765
0.96750973
0.96795520
0.96850621
0.96899155
0.96942465
0.96975818
0.96999347
0.97004081
0.96999619
0.96986500
0.96962455
0.96935736
0.96904680
0.96869772
0.96826915
0.96785372
0.96743264
0.96701405
0.96654081
0.96609164
0.96557463
0.96510511
0.96457273
0.96405552
0.96350809
0.96298204
0.96236279
0.96169707
0.96095624
0.96008322
0.95897774
0.95764979
0.95590390
0.95355737
0.95032974
0.94582533
0.93958987
0.93135511
0.92081265
0.90816013
0.89348093
0.87523506
0.84992618
0.80872782
0.73922042
0.63802619
0.52409267
0.41061813
0.28970636
0.16808568
0.07719854
0.03002268
0.01081139
0.00377564
0.00129489
0.00043925
0.00014781
0.00004937
0.00001641
0.00000543
0.00000179
0.00000059
0.00000019
0.00000006
0.00000002
0.00000001
0.00000000
0.00000000
0.00000000
0.00000000
0.00000000
0.00000000
0.00000000
0.00000000
0.00000000
0.00000001
0.00000003
0.00000010
0.00000032
0.00000099
0.00000308
0.00000962
0.00002996
0.00009324
0.00028952
0.00089903
0.00278821
0.00860556
0.02621519
0.07654733
0.19621718
0.37794659
0.54538990
0.68814384
0.80539233
0.88374255
0.92955481
0.95414624
0.96685613
0.97387304
0.97837370
0.98180218
0.98459163
0.98689280
0.98867409
0.98996299
0.99092258
0.99160025
0.99209320
0.99248182
0.99276873
0.99300913
0.99321223
0.99338505
0.99354695
0.99368040
0.99380875
0.99393204
0.99404624
0.99414827
0.99425457
0.99435863
0.99445018
0.99453157
0.99461868
0.99469767
0.99477407
0.99485015
0.99491899
0.99497097
0.99502163
0.99505932
0.99508197
0.99509513
0.99508524
0.99505153
0.99499813
0.99491533
0.99483230
0.99473856
0.99466003
0.99463189
0.99474902
0.99513814
0.99593351
0.99700958
0.99792857
0.99843645
0.99863139
0.99867482
0.99866015
0.99862453
0.99859272
0.99856665
0.99855087
0.99853937
0.99853988
0.99854726
0.99855534
0.99856878
0.99858364
0.99860067
0.99862048
0.99863962
0.99865860
0.99867988
0.99870234
0.99872607
0.99875102
0.99877731
0.99880467
0.99883775
0.99887823
0.99893653
0.99902851
0.99917263
0.99937108
0.99957434
0.99971443
0.99978359
0.99981016
0.99981792
0.99981908
0.99981775
0.99981565
0.99981287
0.99980949
0.99980360
0.99979190
0.99976077
0.99968005
0.99950238
0.99918819
0.99891074
0.99893602
0.99923547
0.99948795
0.99959671
0.99960642
0.99958841
0.99959019
0.99963841
0.99973001
0.99983883
0.99992768
0.99997414
0.99999193
0.99999763
0.99999912
0.99999888
0.99999674
0.99999036
0.99997604
0.99995606
0.99994519
0.99995462
0.99997438
0.99998917
0.99999575
0.99999745
0.99999577
0.99998922
0.99997452
0.99995486
0.99994567
0.99995644
0.99997632
0.99999048
0.99999678
0.99999890
0.99999916
0.99999775
0.99999232
0.99997538
0.99993096
0.99984603
0.99974215
0.99965702
0.99961367
0.99961099
0.99962436
0.99960735
0.99949044
0.99922561
0.99891722
0.99888697
0.99916808
0.99949356
0.99967806
0.99976144
0.99979353
0.99980513
0.99981034
0.99981339
0.99981572
0.99981765
0.99981900
0.99981816
0.99981112
0.99978672
0.99972229
0.99958903
0.99938880
0.99918727
0.99903907
0.99894423
0.99888498
0.99884275
0.99881145
0.99878227
0.99875871
0.99873577
0.99871258
0.99869269
0.99867309
0.99865403
0.99863469
0.99861861
0.99860229
0.99858640
0.99857393
0.99856420
0.99855869
0.99855972
0.99856797
0.99858123
0.99860591
0.99863770
0.99867053
0.99868539
0.99864786
0.99846307
0.99797918
0.99708328
0.99600368
0.99519450
0.99478443
0.99465931
0.99468461
0.99476407
0.99486249
0.99495119
0.99502909
0.99508605
0.99512282
0.99513159
0.99512016
0.99509683
0.99505640
0.99500392
0.99494450
0.99487743
0.99480056
0.99471961
0.99463354
0.99454852
0.99445624
0.99436965
0.99426847
0.99416329
0.99405290
0.99394319
0.99382376
0.99369652
0.99356195
0.99341336
0.99323871
0.99303271
0.99278378
0.99247923
0.99207786
0.99154512
0.99081597
0.98982398
0.98845170
0.98665495
0.98436031
0.98154833
0.97805864
0.97333790
0.96582285
0.95203373
0.92535691
0.87593045
0.79242570
0.67063716
0.52623889
0.35545273
0.17711641
0.06755215
0.02295004
0.00751939
0.00243304
0.00078397
0.00025221
0.00008105
0.00002605
0.00000836
0.00000268
0.00000086
0.00000027
0.00000009
0.00000003
0.00000001
0.00000000
0.00000000
0.00000000
0.00000000
0.00000000
0.00000000
0.00000000
0.00000000
0.00000000
0.00000001
0.00000004
0.00000013
0.00000041
0.00000132
0.00000420
0.00001342
0.00004294
0.00013791
0.00044404
0.00143758
0.00467605
0.01524187
0.04902606
0.14759883
0.35713094
0.57855448
0.74204546
0.85963886
0.92865331
0.96365581
0.98046086
0.98849538
0.99236332
0.99433865
0.99550460
0.99631174
0.99693447
0.99743172
0.99781727
0.99809997
0.99830807
0.99845756
0.99856911
0.99865472
0.99872129
0.99877450
0.99881993
0.99885694
0.99889267
0.99892243
0.99895000
0.99897506
0.99899922
0.99902035
0.99904160
0.99906137
0.99907969
0.99909624
0.99911362
0.99912795
0.99914304
0.99915738
0.99916985
0.99917933
0.99918947
0.99919668
0.99920153
0.99920227
0.99920082
0.99919596
0.99918680
0.99917326
0.99915823
0.99914173
0.99912767
0.99912320
0.99914256
0.99920780
0.99933375
0.99950254
0.99964904
0.99973358
0.99976796
0.99977622
0.99977406
0.99976798
0.99976227
0.99975786
0.99975460
0.99975254
0.99975254
0.99975344
0.99975503
0.99975728
0.99976037
0.99976320
0.99976659
0.99977006
0.99977333
0.99977723
0.99978132
0.99978556
0.99979019
0.99979501
0.99980010
0.99980596
0.99981342
0.99982377
0.99983970
0.99986393
0.99989617
0.99992873
0.99995162
0.99996349
0.99996834
0.99996986
0.99997012
0.99996992
0.99996944
0.99996837
0.99996544
0.99995526
0.99992090
0.99979743
0.99939065
0.99834970
0.99647338
0.99480622
0.99507578
0.99707537
0.99882731
0.99960789
0.99984471
0.99990550
0.99992346
0.99993581
0.99995224
0.99997102
0.99998642
0.99999485
0.99999824
0.99999921
0.99999874
0.99999569
0.99998486
0.99995206
0.99987309
0.99975654
0.99969192
0.99974904
0.99986465
0.99994658
0.99998056
0.99998890
0.99998063
0.99994678
0.99986535
0.99975018
0.99969417
0.99975855
0.99987447
0.99995264
0.99998506
0.99999576
0.99999877
0.99999924
0.99999833
0.99999510
0.99998704
0.99997232
0.99995446
0.99993900
0.99992730
0.99990888
0.99984622
0.99960071
0.99879710
0.99698782
0.99493334
0.99463755
0.99632793
0.99827761
0.99936614
0.99979090
0.99991976
0.99995514
0.99996553
0.99996846
0.99996942
0.99996990
0.99997011
0.99996989
0.99996852
0.99996406
0.99995300
0.99993105
0.99989899
0.99986642
0.99984149
0.99982504
0.99981447
0.99980679
0.99980089
0.99979588
0.99979154
0.99978751
0.99978337
0.99977974
0.99977637
0.99977281
0.99976930
0.99976629
0.99976353
0.99976099
0.99975873
0.99975714
0.99975633
0.99975651
0.99975803
0.99976059
0.99976496
0.99977065
0.99977621
0.99977858
0.99977115
0.99973858
0.99965800
0.99951552
0.99934643
0.99921726
0.99914899
0.99912799
0.99913300
0.99914690
0.99916395
0.99917971
0.99919307
0.99920219
0.99920819
0.99921016
0.99920821
0.99920372
0.99919619
0.99918657
0.99917496
0.99916222
0.99914808
0.99913253
0.99911659
0.99909954
0.99908149
0.99906310
0.99904341
0.99902300
0.99900038
0.99897708
0.99895281
0.99892628
0.99889590
0.99886165
0.99882323
0.99877665
0.99872079
0.99865290
0.99856302
0.99844595
0.99828513
0.99806721
0.99776991
0.99738052
0.99687987
0.99624871
0.99541672
0.99418409
0.99205533
0.98783043
0.97901004
0.96051768
0.92224016
0.84765628
0.72404913
0.55599902
0.32799262
0.13026073
0.04264183
0.01322688
0.00405754
0.00124778
0.00038518
0.00011950
0.00003723
0.00001162
0.00000364
0.00000114
0.00000036
0.00000011
0.00000004
0.00000001
0.00000000
0.00000000
0.00000000
0.00000000
0.00000000
0.00000000
0.00000000
0.00000000
0.00000000
0.00000001
0.00000005
0.00000015
0.00000049
0.00000157
0.00000507
0.00001646
0.00005376
0.00017653
0.00058379
0.00194967
0.00658696
0.02235779
0.07488887
0.22730919
0.50173056
0.71509546
0.85318117
0.93205695
0.96974555
0.98626828
0.99339914