# vtk DataFile Version 3.0
Concentration output
ASCII
DATASET STRUCTURED_POINTS
DIMENSIONS 298 298 1
ORIGIN 0 0 0
SPACING 0.03 0.03 1.0
POINT_DATA 88804
SCALARS Variable float 1
LOOKUP_TABLE default
0.00000000
0.00000000
0.00000000
0.00000000
0.00000000
0.00000000
0.00000000
0.00000000
0.00000000
0.00000000
0.00000000
0.00000000
0.00000000
0.00000000
0.00000000
0.00000000
0.00000000
0.00000000
0.00000000
0.00000000
0.00000000
0.00000000
0.00000000
0.00000000
0.00000000
0.00000000
0.00000000
0.00000000
0.00000000
0.00000000
0.00000000
0.00000000
0.00000000
0.00000000
0.00000000
0.00000000
0.00000000
0.00000000
0.00000000
0.00000000
0.00000000
0.00000000
0.00000000
0.00000000
0.00000000
0.00000000
0.00000000
0.00000000
0.00000000
0.00000000
0.00000000
0.00000000
0.00000000
0.00000000
0.00000000
0.00000000
0.00000000
0.00000001
0.00000002
0.00000004
0.00000012
0.00000031
0.00000082
0.00000212
0.00000535
0.00001321
0.00003178
0.00007394
0.00016569
0.00035374
0.00070981
0.00131287
0.00217989
0.00316566
0.00394186
0.00420663
0.00393709
0.00335782
0.00272766
0.00220980
0.00183673
0.00159517
0.00144739
0.00135357
0.00129429
0.00125672
0.00123485
0.00122541
0.00122671
0.00123563
0.00124967
0.00126948
0.00129174
0.00131732
0.00133856
0.00135862
0.00137302
0.00137483
0.00136989
0.00135806
0.00134867
0.00135876
0.00143691
0.00168143
0.00226039
0.00325539
0.00437749
0.00514943
0.00550093
0.00558669
0.00557717
0.00556658
0.00557581
0.00561543
0.00567593
0.00576687
0.00586729
0.00600830
0.00619332
0.00653900
0.00728012
0.00908590
0.01331465
0.02088614
0.02924954
0.03390145
0.03300444
0.02656645
0.01739746
0.01060275
0.00777683
0.00937352
0.02263257
0.08606399
0.35403853
0.83782159
0.96954076
0.99453900
0.99902291
0.99982454
0.99996834
0.99999426
0.99999896
0.99999981
0.99999996
0.99999999
1.00000000
1.00000000
1.00000000
1.00000000
1.00000000
1.00000000
1.00000000
0.99999999
0.99999996
0.99999981
0.99999896
0.99999429
0.99996858
0.99982633
0.99903490
0.99461106
0.96996855
0.84011156
0.36111770
0.08870104
0.02359260
0.00981885
0.00820577
0.01131964
0.01844336
0.02745174
0.03343955
0.03431240
0.03015178
0.02212668
0.01422894
0.00955294
0.00746940
0.00663186
0.00624945
0.00602895
0.00589312
0.00577539
0.00569231
0.00562244
0.00557743
0.00556562
0.00558196
0.00557847
0.00550657
0.00519297
0.00447452
0.00337319
0.00234410
0.00172532
0.00145346
0.00136544
0.00135254
0.00136268
0.00137629
0.00138347
0.00138199
0.00137000
0.00134919
0.00132479
0.00129984
0.00127794
0.00125739
0.00124230
0.00123417
0.00123452
0.00124473
0.00126805
0.00130588
0.00136955
0.00146866
0.00162755
0.00187950
0.00226905
0.00280621
0.00343825
0.00399896
0.00422753
0.00389879
0.00307417
0.00208079
0.00123543
0.00066028
0.00032670
0.00015206
0.00006748
0.00002888
0.00001198
0.00000484
0.00000191
0.00000074
0.00000028
0.00000011
0.00000004
0.00000001
0.00000001
0.00000000
0.00000000
0.00000000
0.00000000
0.00000000
0.00000000
0.00000000
0.00000000
0.00000000
0.00000000
0.00000000
0.00000000
0.00000000
0.00000000
0.00000000
0.00000000
0.00000000
0.00000000
0.00000000
0.00000000
0.00000000
0.00000000
0.00000000
0.00000000
0.00000000
0.00000000
0.00000000
0.00000000
0.00000000
0.00000000
0.00000000
0.00000000
0.00000000
0.00000000
0.00000000
0.00000000
0.00000000
0.00000000
0.00000000
0.00000000
0.00000000
0.00000000
0.00000000
0.00000000
0.00000000
0.00000000
0.00000000
0.00000000
0.00000000
0.00000000
0.00000000
0.00000000
0.00000000
0.00000000
0.00000000
0.00000000
0.00000000
0.00000000
0.00000000
0.00000000
0.00000000
0.00000000
0.00000000
0.00000000
0.00000000
0.00000000
0.00000000
0.00000000
0.00000000
0.00000000
0.00000000
0.00000000
0.00000000
0.00000000
0.00000000
0.00000000
0.00000000
0.00000000
0.00000000
0.00000000
0.00000000
0.00000000
0.00000000
0.00000000
0.00000000
0.00000000
0.00000000
0.00000000
0.00000000
0.00000000
0.00000000
0.00000000
0.00000000
0.00000000
0.00000000
0.00000000
0.00000000
0.00000000
0.00000000
0.00000000
0.00000000
0.00000000
0.00000000
0.00000000
0.00000000
0.00000000
0.00000000
0.00000000
0.00000000
0.00000000
0.00000000
0.00000000
0.00000000
0.00000001
0.00000002
0.00000006
0.00000017
0.00000045
0.00000122
0.00000323
0.00000842
0.00002156
0.00005390
0.00013122
0.00030846
0.00069529
0.00147697
0.00289805
0.00506130
0.00762575
0.00977733
0.01078344
0.01058396
0.00967111
0.00856096
0.00761946
0.00696405
0.00657001
0.00635751
0.00624996
0.00619153
0.00616420
0.00617186
0.00619952
0.00625425
0.00633300
0.00642441
0.00653817
0.00666234
0.00678637
0.00689646
0.00700037
0.00707687
0.00709463
0.00707542
0.00702568
0.00697936
0.00702780
0.00738470
0.00857661
0.01159460
0.01712031
0.02344726
0.02770854
0.02960541
0.03006511
0.03006726
0.03002705
0.03007271
0.03028683
0.03058724
0.03095565
0.03144132
0.03208109
0.03290871
0.03437426
0.03756028
0.04568358
0.06611798
0.10492175
0.14703294
0.16947713
0.16546138
0.13424093
0.08749490
0.05306391
0.03899501
0.04200275
0.07986198
0.22725005
0.61584920
0.91159195
0.98286006
0.99677550
0.99939567
0.99988685
0.99997877
0.99999601
0.99999925
0.99999986
0.99999997
0.99999999
1.00000000
1.00000000
1.00000000
1.00000000
1.00000000
1.00000000
1.00000000
0.99999999
0.99999997
0.99999986
0.99999925
0.99999605
0.99997902
0.99988838
0.99940660
0.99684264
0.98325256
0.91386905
0.62582278
0.23488138
0.08357829
0.04394227
0.04096251
0.05658990
0.09301693
0.13878776
0.16737832
0.17141092
0.15153704
0.11133359
0.07072129
0.04784325
0.03843250
0.03478454
0.03313294
0.03217522
0.03151436
0.03099683
0.03062571
0.03032896
0.03008271
0.02999975
0.03004883
0.03004095
0.02963965
0.02797602
0.02397067
0.01777020
0.01205460
0.00879330
0.00745422
0.00705047
0.00699803
0.00704225
0.00710702
0.00713791
0.00711974
0.00705167
0.00695453
0.00682927
0.00669449
0.00657763
0.00645616
0.00635940
0.00628132
0.00623622
0.00620748
0.00620999
0.00623007
0.00629721
0.00642002
0.00665060
0.00706467
0.00775673
0.00871749
0.00982878
0.01069748
0.01077825
0.00963143
0.00737343
0.00480731
0.00271010
0.00136703
0.00063804
0.00028148
0.00011902
0.00004875
0.00001944
0.00000757
0.00000289
0.00000109
0.00000040
0.00000015
0.00000005
0.00000002
0.00000001
0.00000000
0.00000000
0.00000000
0.00000000
0.00000000
0.00000000
0.00000000
0.00000000
0.00000000
0.00000000
0.00000000
0.00000000
0.00000000
0.00000000
0.00000000
0.00000000
0.00000000
0.00000000
0.00000000
0.00000000
0.00000000
0.00000000
0.00000000
0.00000000
0.00000000
0.00000000
0.00000000
0.00000000
0.00000000
0.00000000
0.00000000
0.00000000
0.00000000
0.00000000
0.00000000
0.00000000
0.00000000
0.00000000
0.00000000
0.00000000
0.00000000
0.00000000
0.00000000
0.00000000
0.00000000
0.00000000
0.00000000
0.00000000
0.00000000
0.00000000
0.00000000
0.00000000
0.00000000
0.00000000
0.00000000
0.00000000
0.00000000
0.00000000
0.00000000
0.00000000
0.00000000
0.00000000
0.00000000
0.00000000
0.00000000
0.00000000
0.00000000
0.00000000
0.00000000
0.00000000
0.00000000
0.00000000
0.00000000
0.00000000
0.00000000
0.00000000
0.00000000
0.00000000
0.00000000
0.00000000
0.00000000
0.00000000
0.00000000
0.00000000
0.00000000
0.00000000
0.00000000
0.00000000
0.00000000
0.00000000
0.00000000
0.00000000
0.00000000
0.00000000
0.00000000
0.00000000
0.00000000
0.00000000
0.00000000
0.00000000
0.00000000
0.00000000
0.00000000
0.00000000
0.00000000
0.00000000
0.00000000
0.00000000
0.00000000
0.00000000
0.00000000
0.00000000
0.00000000
0.00000001
0.00000003
0.00000009
0.00000027
0.00000076
0.00000211
0.00000581
0.00001579
0.00004221
0.00011067
0.00028358
0.00070585
0.00168880
0.00382489
0.00796859
0.01461733
0.02284233
0.03015665
0.03456614
0.03588464
0.03525142
0.03396389
0.03296200
0.03264554
0.03295138
0.03355525
0.03422092
0.03478427
0.03525575
0.03575766
0.03621491
0.03673333
0.03728642
0.03791730
0.03862035
0.03933555
0.04006726
0.04071738
0.04130411
0.04169311
0.04187112
0.04177384
0.04150298
0.04129895
0.04149755
0.04333087
0.04980285
0.06716123
0.10067241
0.13913602
0.16397431
0.17440520
0.17712970
0.17727304
0.17708595
0.17741247
0.17853856
0.17984520
0.18163595
0.18393499
0.18676917
0.19046972
0.19680553
0.21029569
0.24545544
0.33624536
0.50528514
0.65965772
0.72466926
0.71368698
0.61715220
0.43244458
0.27836339
0.21432584
0.22038479
0.33618872
0.62195775
0.87197956
0.97032544
0.99374992
0.99871461
0.99973783
0.99994658
0.99998912
0.99999778
0.99999954
0.99999990
0.99999997
0.99999999
0.99999999
1.00000000
1.00000000
1.00000000
1.00000000
1.00000000
0.99999999
0.99999999
0.99999997
0.99999990
0.99999955
0.99999780
0.99998927
0.99994751
0.99974346
0.99874864
0.99394075
0.97138766
0.87704074
0.63604421
0.34993951
0.22861253
0.22302197
0.29426419
0.45668005
0.63289116
0.71938697
0.72982851
0.67415101
0.53145271
0.35698751
0.25467083
0.21408024
0.19846654
0.19144035
0.18721088
0.18422387
0.18205461
0.18014949
0.17870857
0.17758154
0.17702288
0.17724710
0.17706289
0.17473028
0.16546479
0.14224656
0.10463411
0.06986473
0.05100205
0.04372315
0.04164350
0.04134794
0.04158643
0.04192908
0.04205224
0.04190877
0.04153998
0.04096977
0.04024694
0.03948871
0.03882587
0.03806820
0.03744011
0.03685814
0.03637307
0.03590829
0.03543346
0.03489737
0.03431858
0.03370480
0.03311068
0.03288515
0.03324831
0.03428518
0.03549409
0.03602634
0.03439726
0.02958198
0.02201807
0.01382185
0.00739660
0.00351030
0.00153819
0.00063971
0.00025572
0.00009942
0.00003782
0.00001412
0.00000518
0.00000188
0.00000067
0.00000024
0.00000008
0.00000003
0.00000001
0.00000000
0.00000000
0.00000000
0.00000000
0.00000000
0.00000000
0.00000000
0.00000000
0.00000000
0.00000000
0.00000000
0.00000000
0.00000000
0.00000000
0.00000000
0.00000000
0.00000000
0.00000000
0.00000000
0.00000000
0.00000000
0.00000000
0.00000000
0.00000000
0.00000000
0.00000000
0.00000000
0.00000000
0.00000000
0.00000000
0.00000000
0.00000000
0.00000000
0.00000000
0.00000000
0.00000000
0.00000000
0.00000000
0.00000000
0.00000000
0.00000000
0.00000000
0.00000000
0.00000000
0.00000000
0.00000000
0.00000000
0.00000000
0.00000000
0.00000000
0.00000000
0.00000000
0.00000000
0.00000000
0.00000000
0.00000000
0.00000000
0.00000000
0.00000000
0.00000000
0.00000000
0.00000000
0.00000000
0.00000000
0.00000000
0.00000000
0.00000000
0.00000000
0.00000000
0.00000000
0.00000000
0.00000000
0.00000000
0.00000000
0.00000000
0.00000000
0.00000000
0.00000000
0.00000000
0.00000000
0.00000000
0.00000000
0.00000000
0.00000000
0.00000000
0.00000000
0.00000000
0.00000000
0.00000000
0.00000000
0.00000000
0.00000000
0.00000000
0.00000000
0.00000000
0.00000000
0.00000000
0.00000000
0.00000000
0.00000000
0.00000000
0.00000000
0.00000000
0.00000000
0.00000000
0.00000000
0.00000000
0.00000000
0.00000000
0.00000000
0.00000000
0.00000000
0.00000001
0.00000002
0.00000005
0.00000015
0.00000045
0.00000131
0.00000376
0.00001075
0.00003038
0.00008486
0.00023332
0.00062985
0.00165853
0.00422419
0.01021162
0.02265085
0.04348438
0.06971561
0.09455356
0.11313839
0.12562956
0.13382975
0.14064173
0.14787906
0.15683917
0.16670060
0.17591927
0.18371094
0.18978605
0.19449779
0.19838460
0.20168698
0.20490717
0.20804795
0.21131100
0.21467786
0.21815135
0.22164435
0.22463475
0.22744028
0.22927978
0.23000982
0.22985962
0.22860761
0.22763232
0.22850283
0.23636722
0.26438445
0.34306396
0.49272456
0.64179987
0.71963416
0.74637826
0.75306242
0.75416620
0.75419428
0.75478091
0.75646775
0.75889558
0.76149709
0.76468460
0.76847323
0.77334969
0.78010337
0.79157498
0.81295235
0.84956906
0.89673408
0.93239759
0.94687821
0.94424739
0.92215471
0.87594939
0.82246791
0.78667904
0.78513463
0.83323114
0.91426993
0.97080148
0.99231003
0.99809411
0.99953066
0.99988362
0.99997120
0.99999297
0.99999829
0.99999957
0.99999986
0.99999993
0.99999995
0.99999997
0.99999999
0.99999999
1.00000000
0.99999999
0.99999999
0.99999997
0.99999995
0.99999993
0.99999986
0.99999957
0.99999832
0.99999306
0.99997155
0.99988522
0.99954036
0.99814731
0.99259366
0.97204522
0.91819708
0.83942690
0.79142228
0.79323524
0.82974218
0.88258178
0.92573049
0.94555113
0.94806173
0.93555116
0.90312360
0.85625302
0.81755676
0.79430368
0.78166580
0.77417641
0.76922644
0.76540376
0.76203540
0.75899291
0.75678861
0.75517066
0.75419248
0.75393946
0.75315115
0.74734707
0.72386357
0.65282840
0.50912947
0.35534091
0.26974066
0.23807929
0.22907533
0.22791987
0.22905707
0.23023200
0.23078460
0.23004798
0.22833313
0.22570879
0.22232752
0.21893963
0.21541156
0.21201687
0.20861708
0.20525855
0.20224173
0.19886786
0.19486898
0.19006918
0.18382408
0.17605226
0.16669114
0.15681904
0.14802682
0.14075510
0.13364870
0.12514908
0.11201038
0.09244099
0.06703274
0.04089722
0.02087972
0.00929824
0.00381479
0.00149099
0.00056402
0.00020850
0.00007561
0.00002705
0.00000955
0.00000334
0.00000116
0.00000040
0.00000014
0.00000005
0.00000002
0.00000001
0.00000000
0.00000000
0.00000000
0.00000000
0.00000000
0.00000000
0.00000000
0.00000000
0.00000000
0.00000000
0.00000000
0.00000000
0.00000000
0.00000000
0.00000000
0.00000000
0.00000000
0.00000000
0.00000000
0.00000000
0.00000000
0.00000000
0.00000000
0.00000000
0.00000000
0.00000000
0.00000000
0.00000000
0.00000000
0.00000000
0.00000000
0.00000000
0.00000000
0.00000000
0.00000000
0.00000000
0.00000000
0.00000000
0.00000000
0.00000000
0.00000000
0.00000000
0.00000000
0.00000000
0.00000000
0.00000000
0.00000000
0.00000000
0.00000000
0.00000000
0.00000000
0.00000000
0.00000000
0.00000000
0.00000000
0.00000000
0.00000000
0.00000000
0.00000000
0.00000000
0.00000000
0.00000000
0.00000000
0.00000000
0.00000000
0.00000000
0.00000000
0.00000000
0.00000000
0.00000000
0.00000000
0.00000000
0.00000000
0.00000000
0.00000000
0.00000000
0.00000000
0.00000000
0.00000000
0.00000000
0.00000000
0.00000000
0.00000000
0.00000000
0.00000000
0.00000000
0.00000000
0.00000000
0.00000000
0.00000000
0.00000000
0.00000000
0.00000000
0.00000000
0.00000000
0.00000000
0.00000000
0.00000000
0.00000000
0.00000000
0.00000000
0.00000000
0.00000000
0.00000000
0.00000000
0.00000000
0.00000000
0.00000000
0.00000000
0.00000000
0.00000000
0.00000001
0.00000003
0.00000008
0.00000024
0.00000073
0.00000218
0.00000649
0.00001925
0.00005652
0.00016486
0.00047596
0.00135698
0.00379509
0.01034224
0.02688584
0.06332283
0.12475299
0.19992996
0.27317934
0.34036009
0.40272782
0.46054994
0.51571655
0.56998471
0.62319446
0.67086829
0.70775813
0.73389952
0.75160025
0.76322987
0.77140205
0.77779457
0.78277326
0.78749236
0.79148725
0.79529557
0.79898375
0.80220450
0.80510894
0.80758423
0.80919345
0.80988191
0.80984413
0.80903403
0.80837510
0.80882022
0.81305774
0.82632174
0.85440460
0.89478206
0.92899176
0.94645174
0.95264351
0.95431669
0.95457678
0.95461477
0.95475296
0.95517934
0.95567407
0.95629591
0.95704501
0.95784724
0.95894671
0.96038971
0.96283270
0.96705821
0.97382618
0.98192421
0.98799705
0.99054060
0.99002530
0.98604879
0.97790121
0.96797879
0.96067837
0.96000016
0.96884603
0.98329883
0.99341400
0.99739923
0.99875386
0.99949180
0.99982934
0.99994943
0.99998615
0.99999635
0.99999895
0.99999955
0.99999968
0.99999975
0.99999985
0.99999993
0.99999997
0.99999998
0.99999997
0.99999993
0.99999985
0.99999975
0.99999967
0.99999955
0.99999897
0.99999641
0.99998633
0.99994980
0.99982932
0.99948617
0.99872350
0.99738025
0.99361171
0.98404481
0.97006884
0.96136491
0.96207938
0.96937435
0.97906821
0.98669419
0.99027409
0.99076980
0.98856009
0.98301951
0.97500607
0.96793418
0.96335786
0.96070982
0.95912155
0.95802442
0.95715007
0.95641483
0.95574475
0.95519733
0.95480418
0.95459712
0.95454094
0.95430088
0.95289998
0.94733723
0.93141896
0.89873595
0.85815715
0.82848757
0.81422470
0.80927379
0.80868145
0.80931089
0.81023970
0.81033667
0.80963374
0.80812260
0.80590222
0.80291375
0.79958494
0.79590535
0.79197412
0.78783141
0.78318566
0.77799239
0.77161894
0.76318872
0.75125089
0.73344025
0.70692476
0.66886294
0.62064325
0.56677235
0.51213029
0.45627516
0.39754739
0.33475192
0.26642228
0.19192966
0.11710532
0.05804976
0.02427882
0.00927825
0.00338689
0.00120593
0.00042239
0.00014612
0.00005001
0.00001700
0.00000574
0.00000192
0.00000064
0.00000021
0.00000007
0.00000002
0.00000001
0.00000000
0.00000000
0.00000000
0.00000000
0.00000000
0.00000000
0.00000000
0.00000000
0.00000000
0.00000000
0.00000000
0.00000000
0.00000000
0.00000000
0.00000000
0.00000000
0.00000000
0.00000000
0.00000000
0.00000000
0.00000000
0.00000000
0.00000000
0.00000000
0.00000000
0.00000000
0.00000000
0.00000000
0.00000000
0.00000000
0.00000000
0.00000000
0.00000000
0.00000000
0.00000000
0.00000000
0.00000000
0.00000000
0.00000000
0.00000000
0.00000000
0.00000000
0.00000000
0.00000000
0.00000000
0.00000000
0.00000000
0.00000000
0.00000000
0.00000000
0.00000000
0.00000000
0.00000000
0.00000000
0.00000000
0.00000000
0.00000000
0.00000000
0.00000000
0.00000000
0.00000000
0.00000000
0.00000000
0.00000000
0.00000000
0.00000000
0.00000000
0.00000000
0.00000000
0.00000000
0.00000000
0.00000000
0.00000000
0.00000000
0.00000000
0.00000000
0.00000000
0.00000000
0.00000000
0.00000000
0.00000000
0.00000000
0.00000000
0.00000000
0.00000000
0.00000000
0.00000000
0.00000000
0.00000000
0.00000000
0.00000000
0.00000000
0.00000000
0.00000000
0.00000000
0.00000000
0.00000000
0.00000000
0.00000000
0.00000000
0.00000000
0.00000000
0.00000000
0.00000000
0.00000000
0.00000000
0.00000000
0.00000000
0.00000000
0.00000000
0.00000000
0.00000001
0.00000004
0.00000012
0.00000036
0.00000111
0.00000341
0.00001047
0.00003213
0.00009825
0.00029925
0.00090790
0.00273939
0.00818873
0.02400901
0.06678908
0.16304479
0.30791118
0.45680772
0.59433922
0.71640329
0.80164284
0.85041763
0.87902429
0.89911159
0.91554366
0.92900513
0.93925888
0.94639294
0.95127464
0.95448665
0.95681256
0.95855164
0.95997015
0.96117400
0.96225002
0.96319907
0.96411039
0.96491341
0.96559995
0.96617962
0.96658775
0.96677171
0.96679637
0.96669903
0.96651443
0.96665060
0.96748955
0.97001899
0.97505543
0.98190046
0.98763286
0.99069272
0.99186014
0.99220114
0.99225772
0.99227613
0.99230825
0.99237631
0.99247126
0.99259376
0.99272489
0.99287744
0.99306664
0.99332074
0.99374345
0.99445004
0.99552666
0.99676984
0.99772052
0.99817416
0.99813943
0.99748656
0.99612432
0.99442115
0.99310280
0.99287330
0.99410641
0.99582801
0.99577188
0.99451581
0.99559182
0.99799001
0.99933581
0.99981121
0.99995065
0.99998745
0.99999628
0.99999806
0.99999833
0.99999868
0.99999922
0.99999964
0.99999984
0.99999989
0.99999984
0.99999963
0.99999921
0.99999867
0.99999831
0.99999807
0.99999636
0.99998778
0.99995177
0.99981410
0.99933846
0.99796215
0.99536957
0.99405042
0.99544150
0.99581101
0.99428484
0.99311151
0.99335274
0.99466505
0.99631917
0.99759721
0.99818391
0.99821232
0.99780553
0.99693327
0.99570519
0.99459351
0.99383005
0.99337548
0.99309408
0.99289883
0.99274569
0.99260625
0.99249016
0.99238083
0.99230959
0.99226833
0.99224950
0.99219544
0.99191150
0.99086363
0.98804564
0.98254614
0.97570119
0.97043539
0.96772661
0.96674031
0.96657539
0.96672099
0.96686657
0.96686321
0.96667666
0.96630461
0.96576554
0.96508889
0.96424496
0.96336555
0.96233491
0.96129075
0.96004742
0.95860027
0.95684069
0.95447551
0.95109884
0.94622741
0.93891648
0.92839878
0.91467867
0.89795983
0.87723392
0.84694508
0.79531040
0.70564223
0.58047933
0.44148435
0.29104930
0.14913439
0.05986035
0.02128916
0.00724458
0.00242005
0.00080085
0.00026367
0.00008643
0.00002826
0.00000921
0.00000299
0.00000097
0.00000031
0.00000010
0.00000003
0.00000001
0.00000000
0.00000000
0.00000000
0.00000000
0.00000000
0.00000000
0.00000000
0.00000000
0.00000000
0.00000000
0.00000000
0.00000000
0.00000000
0.00000000
0.00000000
0.00000000
0.00000000
0.00000000
0.00000000
0.00000000
0.00000000
0.00000000
0.00000000
0.00000000
0.00000000
0.00000000
0.00000000
0.00000000
0.00000000
0.00000000
0.00000000
0.00000000
0.00000000
0.00000000
0.00000000
0.00000000
0.00000000
0.00000000
0.00000000
0.00000000
0.00000000
0.00000000
0.00000000
0.00000000
0.00000000
0.00000000
0.00000000
0.00000000
0.00000000
0.00000000
0.00000000
0.00000000
0.00000000
0.00000000
0.00000000
0.00000000
0.00000000
0.00000000
0.00000000
0.00000000
0.00000000
0.00000000
0.00000000
0.00000000
0.00000000
0.00000000
0.00000000
0.00000000
0.00000000
0.00000000
0.00000000
0.00000000
0.00000000
0.00000000
0.00000000
0.00000000
0.00000000
0.00000000
0.00000000
0.00000000
0.00000000
0.00000000
0.00000000
0.00000000
0.00000000
0.00000000
0.00000000
0.00000000
0.00000000
0.00000000
0.00000000
0.00000000
0.00000000
0.00000000
0.00000000
0.00000000
0.00000000
0.00000000
0.00000000
0.00000000
0.00000000
0.00000000
0.00000000
0.00000000
0.00000000
0.00000000
0.00000000
0.00000000
0.00000000
0.00000000
0.00000000
0.00000002
0.00000005
0.00000015
0.00000049
0.00000154
0.00000486
0.00001536
0.00004864
0.00015421
0.00049066
0.00156222
0.00498573
0.01588719
0.04970398
0.14477309
0.33791843
0.54767679
0.71484994
0.83745134
0.90990012
0.94710705
0.96487288
0.97374768
0.97908207
0.98295056
0.98599200
0.98825557
0.98985452
0.99095628
0.99170082
0.99223333
0.99264198
0.99296378
0.99323730
0.99348060
0.99369384
0.99388700
0.99405456
0.99419989
0.99432021
0.99440611
0.99445229
0.99446554
0.99445336
0.99443287
0.99445494
0.99461015
0.99504133
0.99586909
0.99696119
0.99788570
0.99840262
0.99861464
0.99868120
0.99869584
0.99870102
0.99870663
0.99871857
0.99873639
0.99875724
0.99878039
0.99880489
0.99883438
0.99886611
0.99889696
0.99889749
0.99880280
0.99862215
0.99854507
0.99880262
0.99920712
0.99937764
0.99925749
0.99898984
0.99871418
0.99841747
0.99764668
0.99431586
0.98388127
0.97139602
0.97652486
0.99010688
0.99704804
0.99923441
0.99981502
0.99995555
0.99998627
0.99999101
0.99999107
0.99999288
0.99999593
0.99999820
0.99999925
0.99999953
0.99999924
0.99999818
0.99999588
0.99999282
0.99999102
0.99999104
0.99998664
0.99995716
0.99982125
0.99925525
0.99709753
0.99008433
0.97540444
0.96874463
0.98173729
0.99358270
0.99750004
0.99841004
0.99874741
0.99903045
0.99928953
0.99939094
0.99920469
0.99877865
0.99850979
0.99859103
0.99879515
0.99890777
0.99890681
0.99887350
0.99884012
0.99880961
0.99878407
0.99876024
0.99873800
0.99871958
0.99870726
0.99869810
0.99869363
0.99868077
0.99862360
0.99843297
0.99795239
0.99706341
0.99597344
0.99511241
0.99465045
0.99446983
0.99443750
0.99445956
0.99447927
0.99446603
0.99442230
0.99434396
0.99422873
0.99408216
0.99391006
0.99371902
0.99349299
0.99325431
0.99297618
0.99264274
0.99222869
0.99168198
0.99091724
0.98980637
0.98816758
0.98583635
0.98273258
0.97873688
0.97316847
0.96360241
0.94439910
0.90425345
0.82678187
0.69847108
0.52695473
0.31288081
0.12916903
0.04376977
0.01393796
0.00437158
0.00136822
0.00042959
0.00013527
0.00004260
0.00001346
0.00000425
0.00000134
0.00000043
0.00000013
0.00000004
0.00000001
0.00000000
0.00000000
0.00000000
0.00000000
0.00000000
0.00000000
0.00000000
0.00000000
0.00000000
0.00000000
0.00000000
0.00000000
0.00000000
0.00000000
0.00000000
0.00000000
0.00000000
0.00000000
0.00000000
0.00000000
0.00000000
0.00000000
0.00000000
0.00000000
0.00000000
0.00000000
0.00000000
0.00000000
0.00000000
0.00000000
0.00000000
0.00000000
0.00000000
0.00000000
0.00000000
0.00000000
0.00000000
0.00000000
0.00000000
0.00000000
0.00000000
0.00000000
0.00000000
0.00000000
0.00000000
0.00000000
0.00000000
0.00000000
0.00000000
0.00000000
0.00000000
0.00000000
0.00000000
0.00000000
0.00000000
0.00000000
0.00000000
0.00000000
0.00000000
0.00000000
0.00000000
0.00000000
0.00000000
0.00000000
0.00000000
0.00000000
0.00000000
0.00000000
0.00000000
0.00000000
0.00000000
0.00000000
0.00000000
0.00000000
0.00000000
0.00000000
0.00000000
0.00000000
0.00000000
0.00000000
0.00000000
0.00000000
0.00000000
0.00000000
0.00000000
0.00000000
0.00000000
0.00000000
0.00000000
0.00000000
0.00000000
0.00000000
0.00000000
0.00000000
0.00000000
0.00000000
0.00000000
0.00000000
0.00000000
0.00000000
0.00000000
0.00000000
0.00000000
0.00000000
0.00000000
0.00000000
0.00000000
0.00000000
0.00000000
0.00000000
0.00000001
0.00000002
0.00000006
0.00000019
0.00000060
0.00000191
0.00000616
0.00001992
0.00006463
0.00021120
0.00069535
0.00230599
0.00770707
0.02588816
0.08501939
0.24921892
0.51886623
0.72545784
0.86123429
0.93521700
0.96959241
0.98460653
0.99105425
0.99397209
0.99549813
0.99647077
0.99717307
0.99768323
0.99804477
0.99829291
0.99846349
0.99858593
0.99867878
0.99875012
0.99881214
0.99886458
0.99891046
0.99895268
0.99898633
0.99901739
0.99904192
0.99905972
0.99907011
0.99907394
0.99907400
0.99907176
0.99907778
0.99910636
0.99917901
0.99931423
0.99948897
0.99963818
0.99972561
0.99976377
0.99977669
0.99977978
0.99978104
0.99978251
0.99978486
0.99978801
0.99979179
0.99979499
0.99979565
0.99978614
0.99973456
0.99955016
0.99891474
0.99729750
0.99482139
0.99337101
0.99459638
0.99728209
0.99902434
0.99961729
0.99970759
0.99952453
0.99864115
0.99444402
0.97686015
0.91952668
0.84858225
0.87818877
0.95299325
0.98760957
0.99711807
0.99936360
0.99985551
0.99995038
0.99995618
0.99995156
0.99996130
0.99997871
0.99999110
0.99999652
0.99999790
0.99999649
0.99999101
0.99997848
0.99996095
0.99995122
0.99995619
0.99995187
0.99986245
0.99939417
0.99723668
0.98799067
0.95357111
0.87339944
0.83555943
0.90853987
0.97348301
0.99366556
0.99848158
0.99950004
0.99970609
0.99961797
0.99901130
0.99722050
0.99443067
0.99308062
0.99448974
0.99706695
0.99881466
0.99952287
0.99972705
0.99978461
0.99979583
0.99979524
0.99979191
0.99978815
0.99978490
0.99978235
0.99978057
0.99977944
0.99977665
0.99976527
0.99973084
0.99964914
0.99950499
0.99933102
0.99919079
0.99911207
0.99907995
0.99907286
0.99907561
0.99907656
0.99907303
0.99906319
0.99904566
0.99902060
0.99899160
0.99895654
0.99891489
0.99886671
0.99881378
0.99875029
0.99867666
0.99858245
0.99845652
0.99828031
0.99802841
0.99765938
0.99713242
0.99640804
0.99539291
0.99377652
0.99060631
0.98351698
0.96701171
0.92936177
0.84933852
0.70611177
0.48961668
0.22343724
0.07455401
0.02256117
0.00671265
0.00200640
0.00060530
0.00018442
0.00005648
0.00001741
0.00000538
0.00000167
0.00000052
0.00000016
0.00000005
0.00000002
0.00000001
0.00000000
0.00000000
0.00000000
0.00000000
0.00000000
0.00000000
0.00000000
0.00000000
0.00000000
0.00000000
0.00000000
0.00000000
0.00000000
0.00000000
0.00000000
0.00000000
0.00000000
0.00000000
0.00000000
0.00000000
0.00000000
0.00000000
0.00000000
0.00000000
0.00000000
0.00000000
0.00000000
0.00000000
0.00000000
0.00000000
0.00000000
0.00000000
0.00000000
0.00000000
0.00000000
0.00000000
0.00000000
0.00000000
0.00000000
0.00000000
0.00000000
0.00000000
0.00000000
0.00000000
0.00000000
0.00000000
0.00000000
0.00000000
0.00000000
0.00000000
0.00000000
0.00000000
0.00000000
0.00000000
0.00000000
0.00000000
0.00000000
0.00000000
0.00000000
0.00000000
0.00000000
0.00000000
0.00000000
0.00000000
0.00000000
0.00000000
0.00000000
0.00000000
0.00000000
0.00000000
0.00000000
0.00000000
0.00000000
0.00000000
0.00000000
0.00000000
0.00000000
0.00000000
0.00000000
0.00000000
0.00000000
0.00000000
0.00000000
0.00000000
0.00000000
0.00000000
0.00000000
0.00000000
0.00000000
0.00000000
0.00000000
0.00000000
0.00000000
0.00000000
0.00000000
0.00000000
0.00000000
0.00000000
0.00000000
0.00000000
0.00000000
0.00000000
0.00000000
0.00000000
0.00000000
0.00000000
0.00000000
0.00000000
0.00000000
0.00000001
0.00000002
0.00000006
0.00000020
0.00000065
0.00000209
0.00000680
0.00002223
0.00007305
0.00024226
0.00081057
0.00274743
0.00943596
0.03259187
0.10987492
0.32059482
0.61484809
0.80182921
0.90998544
0.96164149
0.98363038
0.99262491
0.99632832
0.99793803
0.99869929
0.99909462
0.99933397
0.99948920
0.99959042
0.99965658
0.99970117
0.99973247
0.99975515
0.99977230
0.99978644
0.99979824
0.99980841
0.99981722
0.99982470
0.99983113
0.99983634
0.99983993
0.99984233
0.99984340
0.99984357
0.99984362
0.99984498
0.99985040
0.99986296
0.99988511
0.99991334
0.99993784
0.99995270
0.99995950
0.99996194
0.99996261
0.99996293
0.99996326
0.99996374
0.99996423
0.99996429
0.99996176
0.99994781
0.99989052
0.99962906
0.99858669
0.99497309
0.98543768
0.97014053
0.96117201
0.96891853
0.98546128
0.99558763
0.99882804
0.99958025
0.99922221
0.99639502
0.98164618
0.91150539
0.66119688
0.39928776
0.50273393
0.80826648
0.95518005
0.99076617
0.99815478
0.99959572
0.99982247
0.99977633
0.99973370
0.99978866
0.99988904
0.99995663
0.99998427
0.99999096
0.99998411
0.99995617
0.99988770
0.99978701
0.99973159
0.99977584
0.99982704
0.99962096
0.99828073
0.99135375
0.95768666
0.81559054
0.49306751
0.36806396
0.62211897
0.89951641
0.97919421
0.99593641
0.99913934
0.99956464
0.99881516
0.99552695
0.98516573
0.96804307
0.95953370
0.96824457
0.98406313
0.99442243
0.99842943
0.99959042
0.99988233
0.99994602
0.99996135
0.99996419
0.99996419
0.99996370
0.99996319
0.99996276
0.99996251
0.99996191
0.99995976
0.99995356
0.99993961
0.99991595
0.99988786
0.99986474
0.99985119
0.99984540
0.99984382
0.99984380
0.99984374
0.99984264
0.99984048
0.99983682
0.99983175
0.99982542
0.99981788
0.99980888
0.99979863
0.99978655
0.99977218
0.99975456
0.99973118
0.99969928
0.99965328
0.99958506
0.99947984
0.99931698
0.99906387
0.99863884
0.99780729
0.99604064
0.99193885
0.98194649
0.95760106
0.90087623
0.78461171
0.58559647
0.28771812
0.09573361
0.02822730
0.00817188
0.00238374
0.00070405
0.00021045
0.00006362
0.00001936
0.00000592
0.00000182
0.00000056
0.00000017
0.00000005
0.00000002
0.00000001
0.00000000
0.00000000
0.00000000
0.00000000
0.00000000
0.00000000
0.00000000
0.00000000
0.00000000
0.00000000
0.00000000
0.00000000
0.00000000
0.00000000
0.00000000
0.00000000
0.00000000
0.00000000
0.00000000
0.00000000
0.00000000
0.00000000
0.00000000
0.00000000
0.00000000
0.00000000
0.00000000
0.00000000
0.00000000
0.00000000
0.00000000
0.00000000
0.00000000
0.00000000
0.00000000
0.00000000
0.00000000
0.00000000
0.00000000
0.00000000
0.00000000
0.00000000
0.00000000
0.00000000
0.00000000
0.00000000
0.00000000
0.00000000
0.00000000
0.00000000
0.00000000
0.00000000
0.00000000
0.00000000
0.00000000
0.00000000
0.00000000
0.00000000
0.00000000
0.00000000
0.00000000
0.00000000
0.00000000
0.00000000
0.00000000
0.00000000
0.00000000
0.00000000
0.00000000
0.00000000
0.00000000
0.00000000
0.00000000
0.00000000
0.00000000
0.00000000
0.00000000
0.00000000
0.00000000
0.00000000
0.00000000