# vtk DataFile Version 3.0
Concentration output
ASCII
DATASET STRUCTURED_POINTS
DIMENSIONS 298 298 1
ORIGIN 0 0 0
SPACING 0.03 0.03 1.0
POINT_DATA 88804
SCALARS Variable float 1
LOOKUP_TABLE default
0.00000000
0.00000000
0.00000000
0.00000000
0.00000000
0.00000000
0.00000000
0.00000000
0.00000000
0.00000000
0.00000000
0.00000000
0.00000000
0.00000000
0.00000000
0.00000000
0.00000000
0.00000000
0.00000000
0.00000000
0.00000000
0.00000000
0.00000000
0.00000000
0.00000000
0.00000000
0.00000000
0.00000000
0.00000000
0.00000000
0.00000000
0.00000000
0.00000000
0.00000000
0.00000000
0.00000000
0.00000000
0.00000000
0.00000000
0.00000000
0.00000000
0.00000000
0.00000000
0.00000000
0.00000000
0.00000000
0.00000000
0.00000000
0.00000000
0.00000000
0.00000000
0.00000000
0.00000000
0.00000000
0.00000000
0.00000000
0.00000000
0.00000000
0.00000000
0.00000000
0.00000000
0.00000000
0.00000000
0.00000000
0.00000000
0.00000000
0.00000000
0.00000000
0.00000000
0.00000000
0.00000000
0.00000000
0.00000000
0.00000000
0.00000000
0.00000000
0.00000000
0.00000000
0.00000000
0.00000000
0.00000000
0.00000000
0.00000001
0.00000003
0.00000009
0.00000024
0.00000065
0.00000175
0.00000463
0.00001202
0.00003055
0.00007570
0.00018208
0.00042175
0.00092834
0.00191425
0.00360899
0.00598161
0.00839649
0.00977973
0.00964145
0.00850535
0.00712653
0.00598795
0.00530180
0.00507389
0.00519066
0.00546410
0.00575894
0.00601690
0.00622305
0.00641275
0.00660064
0.00678003
0.00693719
0.00709708
0.00725725
0.00749841
0.00799020
0.00927302
0.01236666
0.01831498
0.02587554
0.03150429
0.03389337
0.03424250
0.03358456
0.03246510
0.03081355
0.02867069
0.02608811
0.02418017
0.02651381
0.04744136
0.14638544
0.52052467
0.88908902
0.97908134
0.99619179
0.99930982
0.99987462
0.99997715
0.99999582
0.99999923
0.99999986
0.99999997
0.99999999
1.00000000
1.00000000
1.00000000
1.00000000
1.00000000
0.99999999
0.99999997
0.99999986
0.99999923
0.99999580
0.99997705
0.99987417
0.99930694
0.99617963
0.97902236
0.88875500
0.52007495
0.14684423
0.04809500
0.02737272
0.02519235
0.02712202
0.02963630
0.03166889
0.03323000
0.03425096
0.03477940
0.03446060
0.03224480
0.02700740
0.01943956
0.01307991
0.00961600
0.00815247
0.00757819
0.00733090
0.00715720
0.00701632
0.00685076
0.00667478
0.00649080
0.00629869
0.00608853
0.00584531
0.00555307
0.00527423
0.00515866
0.00539983
0.00611026
0.00726454
0.00867242
0.00976690
0.00977119
0.00822817
0.00576047
0.00343148
0.00180094
0.00086619
0.00039085
0.00016807
0.00006967
0.00002797
0.00001096
0.00000421
0.00000159
0.00000059
0.00000022
0.00000008
0.00000003
0.00000001
0.00000000
0.00000000
0.00000000
0.00000000
0.00000000
0.00000000
0.00000000
0.00000000
0.00000000
0.00000000
0.00000000
0.00000000
0.00000000
0.00000000
0.00000000
0.00000000
0.00000000
0.00000000
0.00000000
0.00000000
0.00000000
0.00000000
0.00000000
0.00000000
0.00000000
0.00000000
0.00000000
0.00000000
0.00000000
0.00000000
0.00000000
0.00000000
0.00000000
0.00000000
0.00000000
0.00000000
0.00000000
0.00000000
0.00000000
0.00000000
0.00000000
0.00000000
0.00000000
0.00000000
0.00000000
0.00000000
0.00000000
0.00000000
0.00000000
0.00000000
0.00000000
0.00000000
0.00000000
0.00000000
0.00000000
0.00000000
0.00000000
0.00000000
0.00000000
0.00000000
0.00000000
0.00000000
0.00000000
0.00000000
0.00000000
0.00000000
0.00000000
0.00000000
0.00000000
0.00000000
0.00000000
0.00000000
0.00000000
0.00000000
0.00000000
0.00000000
0.00000000
0.00000000
0.00000000
0.00000000
0.00000000
0.00000000
0.00000000
0.00000000
0.00000000
0.00000000
0.00000000
0.00000000
0.00000000
0.00000000
0.00000000
0.00000000
0.00000000
0.00000000
0.00000000
0.00000000
0.00000000
0.00000000
0.00000000
0.00000000
0.00000000
0.00000000
0.00000000
0.00000000
0.00000000
0.00000000
0.00000000
0.00000000
0.00000000
0.00000000
0.00000000
0.00000000
0.00000000
0.00000000
0.00000000
0.00000000
0.00000000
0.00000000
0.00000000
0.00000000
0.00000000
0.00000000
0.00000000
0.00000000
0.00000000
0.00000000
0.00000000
0.00000000
0.00000000
0.00000000
0.00000000
0.00000000
0.00000000
0.00000000
0.00000000
0.00000000
0.00000000
0.00000000
0.00000000
0.00000000
0.00000000
0.00000000
0.00000000
0.00000000
0.00000000
0.00000000
0.00000000
0.00000000
0.00000000
0.00000000
0.00000000
0.00000000
0.00000000
0.00000000
0.00000000
0.00000000
0.00000000
0.00000000
0.00000000
0.00000000
0.00000000
0.00000000
0.00000000
0.00000001
0.00000004
0.00000011
0.00000032
0.00000089
0.00000246
0.00000674
0.00001815
0.00004801
0.00012473
0.00031646
0.00077753
0.00183060
0.00407406
0.00829594
0.01470542
0.02166366
0.02648865
0.02800193
0.02698976
0.02497080
0.02319928
0.02242369
0.02307107
0.02496828
0.02730326
0.02939225
0.03103741
0.03233495
0.03340412
0.03438097
0.03526607
0.03606996
0.03679177
0.03752622
0.03858453
0.04074852
0.04649979
0.06134736
0.09182683
0.13132980
0.15947212
0.17114654
0.17299961
0.17062258
0.16592619
0.15929340
0.14976573
0.13788195
0.12784056
0.13181230
0.18290645
0.37729525
0.76217666
0.94641785
0.98931711
0.99792858
0.99960218
0.99992389
0.99998548
0.99999723
0.99999947
0.99999990
0.99999998
1.00000000
1.00000000
1.00000000
1.00000000
1.00000000
1.00000000
1.00000000
0.99999998
0.99999990
0.99999947
0.99999722
0.99998543
0.99992367
0.99960124
0.99792465
0.98930646
0.94649782
0.76279412
0.37995741
0.18600485
0.13631702
0.13309705
0.14294796
0.15422844
0.16295408
0.16929771
0.17330507
0.17518313
0.17332544
0.16288077
0.13690448
0.09770922
0.06487850
0.04807543
0.04139520
0.03893723
0.03784488
0.03706457
0.03634271
0.03556059
0.03468426
0.03372330
0.03262127
0.03138986
0.02975725
0.02763684
0.02532326
0.02339682
0.02271202
0.02348445
0.02527212
0.02726363
0.02813896
0.02635424
0.02116905
0.01407732
0.00782695
0.00380761
0.00169796
0.00071572
0.00029012
0.00011416
0.00004386
0.00001650
0.00000611
0.00000223
0.00000080
0.00000029
0.00000010
0.00000004
0.00000001
0.00000000
0.00000000
0.00000000
0.00000000
0.00000000
0.00000000
0.00000000
0.00000000
0.00000000
0.00000000
0.00000000
0.00000000
0.00000000
0.00000000
0.00000000
0.00000000
0.00000000
0.00000000
0.00000000
0.00000000
0.00000000
0.00000000
0.00000000
0.00000000
0.00000000
0.00000000
0.00000000
0.00000000
0.00000000
0.00000000
0.00000000
0.00000000
0.00000000
0.00000000
0.00000000
0.00000000
0.00000000
0.00000000
0.00000000
0.00000000
0.00000000
0.00000000
0.00000000
0.00000000
0.00000000
0.00000000
0.00000000
0.00000000
0.00000000
0.00000000
0.00000000
0.00000000
0.00000000
0.00000000
0.00000000
0.00000000
0.00000000
0.00000000
0.00000000
0.00000000
0.00000000
0.00000000
0.00000000
0.00000000
0.00000000
0.00000000
0.00000000
0.00000000
0.00000000
0.00000000
0.00000000
0.00000000
0.00000000
0.00000000
0.00000000
0.00000000
0.00000000
0.00000000
0.00000000
0.00000000
0.00000000
0.00000000
0.00000000
0.00000000
0.00000000
0.00000000
0.00000000
0.00000000
0.00000000
0.00000000
0.00000000
0.00000000
0.00000000
0.00000000
0.00000000
0.00000000
0.00000000
0.00000000
0.00000000
0.00000000
0.00000000
0.00000000
0.00000000
0.00000000
0.00000000
0.00000000
0.00000000
0.00000000
0.00000000
0.00000000
0.00000000
0.00000000
0.00000000
0.00000000
0.00000000
0.00000000
0.00000000
0.00000000
0.00000000
0.00000000
0.00000000
0.00000000
0.00000000
0.00000000
0.00000000
0.00000000
0.00000000
0.00000000
0.00000000
0.00000000
0.00000000
0.00000000
0.00000000
0.00000000
0.00000000
0.00000000
0.00000000
0.00000000
0.00000000
0.00000000
0.00000000
0.00000000
0.00000000
0.00000000
0.00000000
0.00000000
0.00000000
0.00000000
0.00000000
0.00000000
0.00000000
0.00000000
0.00000000
0.00000000
0.00000000
0.00000000
0.00000000
0.00000000
0.00000000
0.00000000
0.00000000
0.00000000
0.00000001
0.00000002
0.00000006
0.00000016
0.00000048
0.00000139
0.00000400
0.00001139
0.00003207
0.00008927
0.00024509
0.00066143
0.00173898
0.00442599
0.01068842
0.02353401
0.04429449
0.06834416
0.08785054
0.09994552
0.10546302
0.10715230
0.10815395
0.11195325
0.12182863
0.13714585
0.15362025
0.16719220
0.17719401
0.18463914
0.19048398
0.19532519
0.19971813
0.20342921
0.20702487
0.21036770
0.21499160
0.22417609
0.24878830
0.31450170
0.45122155
0.61012509
0.70296814
0.73544948
0.74157032
0.73784072
0.72885895
0.71407185
0.69050475
0.65597665
0.62270445
0.62527512
0.69723217
0.82129427
0.93762930
0.98447943
0.99651558
0.99924862
0.99984158
0.99996705
0.99999321
0.99999861
0.99999971
0.99999994
0.99999998
0.99999999
1.00000000
1.00000000
1.00000000
1.00000000
1.00000000
0.99999999
0.99999998
0.99999993
0.99999971
0.99999860
0.99999319
0.99996700
0.99984139
0.99924940
0.99652255
0.98455051
0.93819832
0.82421112
0.70586345
0.64171840
0.64211343
0.67213199
0.70230672
0.72289107
0.73554774
0.74284464
0.74563307
0.74033008
0.71256364
0.63012759
0.47663903
0.33051375
0.25551243
0.22713232
0.21640454
0.21174452
0.20827120
0.20481012
0.20118868
0.19677199
0.19182967
0.18602487
0.17866159
0.16876989
0.15520829
0.13876747
0.12317385
0.11295619
0.10884794
0.10756086
0.10569052
0.09965437
0.08697899
0.06650606
0.04229789
0.02202758
0.00989142
0.00406719
0.00158995
0.00060198
0.00022287
0.00008105
0.00002901
0.00001028
0.00000360
0.00000125
0.00000043
0.00000015
0.00000005
0.00000002
0.00000001
0.00000000
0.00000000
0.00000000
0.00000000
0.00000000
0.00000000
0.00000000
0.00000000
0.00000000
0.00000000
0.00000000
0.00000000
0.00000000
0.00000000
0.00000000
0.00000000
0.00000000
0.00000000
0.00000000
0.00000000
0.00000000
0.00000000
0.00000000
0.00000000
0.00000000
0.00000000
0.00000000
0.00000000
0.00000000
0.00000000
0.00000000
0.00000000
0.00000000
0.00000000
0.00000000
0.00000000
0.00000000
0.00000000
0.00000000
0.00000000
0.00000000
0.00000000
0.00000000
0.00000000
0.00000000
0.00000000
0.00000000
0.00000000
0.00000000
0.00000000
0.00000000
0.00000000
0.00000000
0.00000000
0.00000000
0.00000000
0.00000000
0.00000000
0.00000000
0.00000000
0.00000000
0.00000000
0.00000000
0.00000000
0.00000000
0.00000000
0.00000000
0.00000000
0.00000000
0.00000000
0.00000000
0.00000000
0.00000000
0.00000000
0.00000000
0.00000000
0.00000000
0.00000000
0.00000000
0.00000000
0.00000000
0.00000000
0.00000000
0.00000000
0.00000000
0.00000000
0.00000000
0.00000000
0.00000000
0.00000000
0.00000000
0.00000000
0.00000000
0.00000000
0.00000000
0.00000000
0.00000000
0.00000000
0.00000000
0.00000000
0.00000000
0.00000000
0.00000000
0.00000000
0.00000000
0.00000000
0.00000000
0.00000000
0.00000000
0.00000000
0.00000000
0.00000000
0.00000000
0.00000000
0.00000000
0.00000000
0.00000000
0.00000000
0.00000000
0.00000000
0.00000000
0.00000000
0.00000000
0.00000000
0.00000000
0.00000000
0.00000000
0.00000000
0.00000000
0.00000000
0.00000000
0.00000000
0.00000000
0.00000000
0.00000000
0.00000000
0.00000000
0.00000000
0.00000000
0.00000000
0.00000000
0.00000000
0.00000000
0.00000000
0.00000000
0.00000000
0.00000000
0.00000000
0.00000000
0.00000000
0.00000000
0.00000000
0.00000000
0.00000000
0.00000000
0.00000000
0.00000000
0.00000000
0.00000000
0.00000000
0.00000000
0.00000001
0.00000003
0.00000008
0.00000024
0.00000073
0.00000220
0.00000655
0.00001946
0.00005736
0.00016763
0.00048636
0.00139294
0.00393305
0.01081250
0.02838030
0.06721189
0.13175244
0.20709920
0.27728417
0.33749112
0.38493574
0.42077358
0.45046804
0.48684529
0.54189854
0.61086189
0.67247660
0.71497411
0.74098390
0.75638259
0.76706551
0.77470546
0.78071620
0.78567914
0.78962145
0.79336536
0.79738413
0.80403212
0.81759398
0.84394530
0.88381431
0.92143986
0.94218708
0.94960365
0.95108178
0.95010785
0.94796348
0.94436680
0.93873728
0.93058941
0.92264758
0.92287927
0.93837683
0.96401407
0.98646636
0.99609317
0.99897803
0.99974551
0.99993839
0.99998542
0.99999660
0.99999920
0.99999978
0.99999991
0.99999995
0.99999997
0.99999999
0.99999999
1.00000000
0.99999999
0.99999999
0.99999997
0.99999995
0.99999991
0.99999978
0.99999919
0.99999656
0.99998527
0.99993796
0.99974457
0.99897923
0.99611474
0.98661357
0.96469321
0.94042018
0.92676212
0.92720911
0.93431483
0.94148985
0.94635765
0.94949224
0.95121599
0.95200116
0.95076737
0.94434407
0.92585392
0.89027267
0.84936633
0.82098727
0.80597415
0.79859830
0.79462231
0.79103013
0.78703732
0.78217983
0.77618805
0.76876210
0.75851607
0.74336714
0.71826300
0.67658004
0.61518050
0.54577339
0.48935217
0.45133161
0.41974576
0.38312130
0.33410920
0.27271862
0.20140269
0.12541956
0.06247487
0.02602415
0.00985390
0.00357124
0.00126221
0.00043938
0.00015152
0.00005171
0.00001751
0.00000590
0.00000197
0.00000066
0.00000022
0.00000007
0.00000002
0.00000001
0.00000000
0.00000000
0.00000000
0.00000000
0.00000000
0.00000000
0.00000000
0.00000000
0.00000000
0.00000000
0.00000000
0.00000000
0.00000000
0.00000000
0.00000000
0.00000000
0.00000000
0.00000000
0.00000000
0.00000000
0.00000000
0.00000000
0.00000000
0.00000000
0.00000000
0.00000000
0.00000000
0.00000000
0.00000000
0.00000000
0.00000000
0.00000000
0.00000000
0.00000000
0.00000000
0.00000000
0.00000000
0.00000000
0.00000000
0.00000000
0.00000000
0.00000000
0.00000000
0.00000000
0.00000000
0.00000000
0.00000000
0.00000000
0.00000000
0.00000000
0.00000000
0.00000000
0.00000000
0.00000000
0.00000000
0.00000000
0.00000000
0.00000000
0.00000000
0.00000000
0.00000000
0.00000000
0.00000000
0.00000000
0.00000000
0.00000000
0.00000000
0.00000000
0.00000000
0.00000000
0.00000000
0.00000000
0.00000000
0.00000000
0.00000000
0.00000000
0.00000000
0.00000000
0.00000000
0.00000000
0.00000000
0.00000000
0.00000000
0.00000000
0.00000000
0.00000000
0.00000000
0.00000000
0.00000000
0.00000000
0.00000000
0.00000000
0.00000000
0.00000000
0.00000000
0.00000000
0.00000000
0.00000000
0.00000000
0.00000000
0.00000000
0.00000000
0.00000000
0.00000000
0.00000000
0.00000000
0.00000000
0.00000000
0.00000000
0.00000000
0.00000000
0.00000000
0.00000000
0.00000000
0.00000000
0.00000000
0.00000000
0.00000000
0.00000000
0.00000000
0.00000000
0.00000000
0.00000000
0.00000000
0.00000000
0.00000000
0.00000000
0.00000000
0.00000000
0.00000000
0.00000000
0.00000000
0.00000000
0.00000000
0.00000000
0.00000000
0.00000000
0.00000000
0.00000000
0.00000000
0.00000000
0.00000000
0.00000000
0.00000000
0.00000000
0.00000000
0.00000000
0.00000000
0.00000000
0.00000000
0.00000000
0.00000000
0.00000000
0.00000000
0.00000000
0.00000000
0.00000000
0.00000000
0.00000000
0.00000000
0.00000000
0.00000001
0.00000004
0.00000011
0.00000035
0.00000107
0.00000330
0.00001018
0.00003136
0.00009644
0.00029571
0.00090548
0.00276176
0.00835734
0.02486536
0.07064132
0.17521675
0.33425594
0.49671598
0.64384719
0.75651353
0.82020146
0.85160893
0.86863068
0.88239699
0.89867538
0.91677535
0.93232172
0.94299861
0.94963876
0.95365274
0.95643445
0.95839873
0.95992498
0.96115436
0.96220509
0.96307980
0.96404479
0.96548387
0.96816971
0.97302301
0.97987846
0.98618182
0.98972597
0.99104283
0.99129176
0.99112951
0.99074594
0.99006513
0.98899281
0.98747569
0.98601393
0.98593821
0.98837402
0.99249298
0.99628434
0.99831623
0.99934645
0.99978809
0.99993838
0.99998332
0.99999564
0.99999878
0.99999951
0.99999967
0.99999976
0.99999985
0.99999993
0.99999997
0.99999998
0.99999997
0.99999993
0.99999985
0.99999976
0.99999967
0.99999951
0.99999875
0.99999551
0.99998280
0.99993644
0.99978125
0.99932623
0.99827485
0.99625416
0.99257717
0.98873911
0.98663074
0.98683312
0.98816692
0.98950049
0.99043672
0.99102929
0.99134096
0.99146358
0.99124597
0.99012332
0.98694164
0.98097795
0.97400917
0.96880078
0.96586324
0.96426981
0.96333306
0.96247921
0.96147724
0.96023637
0.95872771
0.95678138
0.95415418
0.95021173
0.94374767
0.93321567
0.91768821
0.89941389
0.88268769
0.86835113
0.85019781
0.81712652
0.74990128
0.63351713
0.48398198
0.31930303
0.16256452
0.06423542
0.02246510
0.00752817
0.00248017
0.00081212
0.00026543
0.00008629
0.00002805
0.00000910
0.00000295
0.00000096
0.00000031
0.00000010
0.00000003
0.00000001
0.00000000
0.00000000
0.00000000
0.00000000
0.00000000
0.00000000
0.00000000
0.00000000
0.00000000
0.00000000
0.00000000
0.00000000
0.00000000
0.00000000
0.00000000
0.00000000
0.00000000
0.00000000
0.00000000
0.00000000
0.00000000
0.00000000
0.00000000
0.00000000
0.00000000
0.00000000
0.00000000
0.00000000
0.00000000
0.00000000
0.00000000
0.00000000
0.00000000
0.00000000
0.00000000
0.00000000
0.00000000
0.00000000
0.00000000
0.00000000
0.00000000
0.00000000
0.00000000
0.00000000
0.00000000
0.00000000
0.00000000
0.00000000
0.00000000
0.00000000
0.00000000
0.00000000
0.00000000
0.00000000
0.00000000
0.00000000
0.00000000
0.00000000
0.00000000
0.00000000
0.00000000
0.00000000
0.00000000
0.00000000
0.00000000
0.00000000
0.00000000
0.00000000
0.00000000
0.00000000
0.00000000
0.00000000
0.00000000
0.00000000
0.00000000
0.00000000
0.00000000
0.00000000
0.00000000
0.00000000
0.00000000
0.00000000
0.00000000
0.00000000
0.00000000
0.00000000
0.00000000
0.00000000
0.00000000
0.00000000
0.00000000
0.00000000
0.00000000
0.00000000
0.00000000
0.00000000
0.00000000
0.00000000
0.00000000
0.00000000
0.00000000
0.00000000
0.00000000
0.00000000
0.00000000
0.00000000
0.00000000
0.00000000
0.00000000
0.00000000
0.00000000
0.00000000
0.00000000
0.00000000
0.00000000
0.00000000
0.00000000
0.00000000
0.00000000
0.00000000
0.00000000
0.00000000
0.00000000
0.00000000
0.00000000
0.00000000
0.00000000
0.00000000
0.00000000
0.00000000
0.00000000
0.00000000
0.00000000
0.00000000
0.00000000
0.00000000
0.00000000
0.00000000
0.00000000
0.00000000
0.00000000
0.00000000
0.00000000
0.00000000
0.00000000
0.00000000
0.00000000
0.00000000
0.00000000
0.00000000
0.00000000
0.00000000
0.00000000
0.00000000
0.00000000
0.00000000
0.00000000
0.00000000
0.00000000
0.00000000
0.00000000
0.00000001
0.00000005
0.00000014
0.00000045
0.00000142
0.00000451
0.00001430
0.00004550
0.00014521
0.00046541
0.00149677
0.00483716
0.01565269
0.04998498
0.14936358
0.35855716
0.58714888
0.76162118
0.87273757
0.93052835
0.95666461
0.96798169
0.97335361
0.97694657
0.98049250
0.98413534
0.98725994
0.98944910
0.99083729
0.99170598
0.99229528
0.99273242
0.99306354
0.99333864
0.99355929
0.99374894
0.99394977
0.99421173
0.99468926
0.99548967
0.99655471
0.99746858
0.99785035
0.99776954
0.99768028
0.99786804
0.99809472
0.99813929
0.99799651
0.99771428
0.99734924
0.99691981
0.99611639
0.99439078
0.99336296
0.99516576
0.99784862
0.99929799
0.99980171
0.99994837
0.99998689
0.99999617
0.99999809
0.99999838
0.99999872
0.99999924
0.99999964
0.99999984
0.99999990
0.99999984
0.99999964
0.99999923
0.99999871
0.99999836
0.99999806
0.99999607
0.99998645
0.99994645
0.99979411
0.99926723
0.99774407
0.99490744
0.99299307
0.99407067
0.99601508
0.99699342
0.99747463
0.99783554
0.99809043
0.99820787
0.99814044
0.99788746
0.99767658
0.99776390
0.99788868
0.99757898
0.99672437
0.99564927
0.99479979
0.99428277
0.99399007
0.99379552
0.99361524
0.99339186
0.99312281
0.99279614
0.99237028
0.99179289
0.99094099
0.98957589
0.98740346
0.98428921
0.98059116
0.97694531
0.97318725
0.96744394
0.95537585
0.92728586
0.86588286
0.74889671
0.56887402
0.33530791
0.13528961
0.04476320
0.01397197
0.00431204
0.00133394
0.00041452
0.00012934
0.00004053
0.00001273
0.00000401
0.00000127
0.00000040
0.00000013
0.00000004
0.00000001
0.00000000
0.00000000
0.00000000
0.00000000
0.00000000
0.00000000
0.00000000
0.00000000
0.00000000
0.00000000
0.00000000
0.00000000
0.00000000
0.00000000
0.00000000
0.00000000
0.00000000
0.00000000
0.00000000
0.00000000
0.00000000
0.00000000
0.00000000
0.00000000
0.00000000
0.00000000
0.00000000
0.00000000
0.00000000
0.00000000
0.00000000
0.00000000
0.00000000
0.00000000
0.00000000
0.00000000
0.00000000
0.00000000
0.00000000
0.00000000
0.00000000
0.00000000
0.00000000
0.00000000
0.00000000
0.00000000
0.00000000
0.00000000
0.00000000
0.00000000
0.00000000
0.00000000
0.00000000
0.00000000
0.00000000
0.00000000
0.00000000
0.00000000
0.00000000
0.00000000
0.00000000
0.00000000
0.00000000
0.00000000
0.00000000
0.00000000
0.00000000
0.00000000
0.00000000
0.00000000
0.00000000
0.00000000
0.00000000
0.00000000
0.00000000
0.00000000
0.00000000
0.00000000
0.00000000
0.00000000
0.00000000
0.00000000
0.00000000
0.00000000
0.00000000
0.00000000
0.00000000
0.00000000
0.00000000
0.00000000
0.00000000
0.00000000
0.00000000
0.00000000
0.00000000
0.00000000
0.00000000
0.00000000
0.00000000
0.00000000
0.00000000
0.00000000
0.00000000
0.00000000
0.00000000
0.00000000
0.00000000
0.00000000
0.00000000
0.00000000
0.00000000
0.00000000
0.00000000
0.00000000
0.00000000
0.00000000
0.00000000
0.00000000
0.00000000
0.00000000
0.00000000
0.00000000
0.00000000
0.00000000
0.00000000
0.00000000
0.00000000
0.00000000
0.00000000
0.00000000
0.00000000
0.00000000
0.00000000
0.00000000
0.00000000
0.00000000
0.00000000
0.00000000
0.00000000
0.00000000
0.00000000
0.00000000
0.00000000
0.00000000
0.00000000
0.00000000
0.00000000
0.00000000
0.00000000
0.00000000
0.00000000
0.00000000
0.00000000
0.00000000
0.00000000
0.00000000
0.00000000
0.00000000
0.00000000
0.00000000
0.00000001
0.00000002
0.00000005
0.00000016
0.00000053
0.00000169
0.00000544
0.00001758
0.00005725
0.00018758
0.00061998
0.00206878
0.00698507
0.02376700
0.07969142
0.24195897
0.52699464
0.74929498
0.88318915
0.94849412
0.97635763
0.98764991
0.99224238
0.99421574
0.99529210
0.99614683
0.99692388
0.99756364
0.99801669
0.99831123
0.99849844
0.99862563
0.99871916
0.99879307
0.99885236
0.99889905
0.99893975
0.99897856
0.99902568
0.99909469
0.99917299
0.99916183
0.99878437
0.99755465
0.99563773
0.99479750
0.99628364
0.99827322
0.99921859
0.99947611
0.99939765
0.99889102
0.99694589
0.99028978
0.97586869
0.96561244
0.97458623
0.98946720
0.99689407
0.99920089
0.99980769
0.99995404
0.99998612
0.99999129
0.99999142
0.99999313
0.99999606
0.99999825
0.99999926
0.99999954
0.99999926
0.99999823
0.99999601
0.99999307
0.99999138
0.99999123
0.99998583
0.99995264
0.99980109
0.99917058
0.99675916
0.98895041
0.97320319
0.96351249
0.97387318
0.98935886
0.99668420
0.99885451
0.99940213
0.99948795
0.99922572
0.99825241
0.99617505
0.99457251
0.99536156
0.99737307
0.99872027
0.99915902
0.99919041
0.99911103
0.99903812
0.99898773
0.99894862
0.99890911
0.99886182
0.99880347
0.99873098
0.99863889
0.99851353
0.99832869
0.99803982
0.99758738
0.99694651
0.99615339
0.99526674
0.99412757
0.99199572
0.98704141
0.97475340
0.94455650
0.87417274
0.73239967
0.49930252
0.21865451
0.07078043
0.02103501
0.00618302
0.00183094
0.00054915
0.00016619
0.00005069
0.00001559
0.00000482
0.00000149
0.00000047
0.00000015
0.00000005
0.00000001
0.00000000
0.00000000
0.00000000
0.00000000
0.00000000
0.00000000
0.00000000
0.00000000
0.00000000
0.00000000
0.00000000
0.00000000
0.00000000
0.00000000
0.00000000
0.00000000
0.00000000
0.00000000
0.00000000
0.00000000
0.00000000
0.00000000
0.00000000
0.00000000
0.00000000
0.00000000
0.00000000
0.00000000
0.00000000
0.00000000
0.00000000
0.00000000
0.00000000
0.00000000
0.00000000
0.00000000
0.00000000
0.00000000
0.00000000
0.00000000
0.00000000
0.00000000
0.00000000
0.00000000
0.00000000
0.00000000
0.00000000
0.00000000
0.00000000
0.00000000
0.00000000
0.00000000
0.00000000
0.00000000
0.00000000
0.00000000
0.00000000
0.00000000
0.00000000
0.00000000
0.00000000
0.00000000
0.00000000
0.00000000
0.00000000
0.00000000
0.00000000
0.00000000
0.00000000
0.00000000
0.00000000
0.00000000
0.00000000
0.00000000
0.00000000
0.00000000
0.00000000
0.00000000
0.00000000
0.00000000
0.00000000
0.00000000
0.00000000
0.00000000
0.00000000
0.00000000
0.00000000
0.00000000
0.00000000
0.00000000
0.00000000
0.00000000
0.00000000
0.00000000
0.00000000
0.00000000
0.00000000
0.00000000
0.00000000
0.00000000
0.00000000
0.00000000
0.00000000
0.00000000
0.00000000
0.00000000
0.00000000
0.00000000
0.00000000
0.00000000
0.00000000
0.00000000
0.00000000
0.00000000
0.00000000
0.00000000
0.00000000
0.00000000
0.00000000
0.00000000
0.00000000
0.00000000
0.00000000
0.00000000
0.00000000
0.00000000
0.00000000
0.00000000
0.00000000
0.00000000
0.00000000
0.00000000
0.00000000
0.00000000
0.00000000
0.00000000
0.00000000
0.00000000
0.00000000
0.00000000
0.00000000
0.00000000
0.00000000
0.00000000
0.00000000
0.00000000
0.00000000
0.00000000
0.00000000
0.00000000
0.00000000
0.00000000
0.00000000
0.00000000
0.00000000
0.00000000
0.00000000
0.00000000
0.00000000
0.00000000
0.00000001
0.00000002
0.00000005
0.00000017
0.00000054
0.00000175
0.00000566
0.00001842
0.00006044
0.00019952
0.00066661
0.00225102
0.00770486
0.02665426
0.09074445
0.27573479
0.57660894
0.78536747
0.90393564
0.95957559
0.98287071
0.99226145
0.99606279
0.99770019
0.99850187
0.99896451
0.99925437
0.99944838
0.99957534
0.99965237
0.99969823
0.99972805
0.99975218
0.99977371
0.99979203
0.99980546
0.99981527
0.99982007
0.99981258
0.99975864
0.99953390
0.99860123
0.99554989
0.98787403
0.97583788
0.97060359
0.98025330
0.99232926
0.99773352
0.99925983
0.99923212
0.99730929
0.98843965
0.95447158
0.87469411
0.81757624
0.86735413
0.94891193
0.98667972
0.99692906
0.99932588
0.99984829
0.99995003
0.99995801
0.99995370
0.99996281
0.99997953
0.99999142
0.99999663
0.99999796
0.99999659
0.99999130
0.99997926
0.99996247
0.99995346
0.99995783
0.99994938
0.99984462
0.99930604
0.99682815
0.98615711
0.94662873
0.86059902
0.80739991
0.86441382
0.94970274
0.98719978
0.99704647
0.99917971
0.99925149
0.99771637
0.99220982
0.97965368
0.96928938
0.97415665
0.98675566
0.99507078
0.99845233
0.99949864
0.99975165
0.99981186
0.99982103
0.99981639
0.99980669
0.99979300
0.99977448
0.99975253
0.99972831
0.99969821
0.99965255
0.99957571
0.99944705
0.99924864
0.99894227
0.99844814
0.99758507
0.99579473
0.99160003
0.98122905
0.95560324
0.89482151
0.76788588
0.54702596
0.24808671
0.07998388
0.02340792
0.00677321
0.00198085
0.00058701
0.00017623
0.00005332
0.00001627
0.00000500
0.00000154
0.00000048
0.00000015
0.00000005
0.00000001
0.00000000
0.00000000
0.00000000
0.00000000
0.00000000
0.00000000
0.00000000
0.00000000
0.00000000
0.00000000
0.00000000
0.00000000
0.00000000
0.00000000
0.00000000
0.00000000
0.00000000
0.00000000
0.00000000
0.00000000
0.00000000
0.00000000
0.00000000
0.00000000
0.00000000
0.00000000
0.00000000
0.00000000
0.00000000
0.00000000
0.00000000
0.00000000
0.00000000
0.00000000
0.00000000
0.00000000
0.00000000
0.00000000
0.00000000
0.00000000
0.00000000
0.00000000
0.00000000
0.00000000
0.00000000
0.00000000
0.00000000
0.00000000
0.00000000
0.00000000
0.00000000
0.00000000
0.00000000
0.00000000
0.00000000
0.00000000
0.00000000
0.00000000
0.00000000
0.00000000
0.00000000
0.00000000
0.00000000
0.00000000
0.00000000
0.00000000
0.00000000
0.00000000
0.00000000
0.00000000
0.00000000
0.00000000
0.00000000
0.00000000
0.00000000
0.00000000
0.00000000
0.00000000
0.00000000
0.00000000
0.00000000
0.00000000
0.00000000
0.00000000
0.00000000
0.00000000
0.00000000
0.00000000
0.00000000
0.00000000
0.00000000
0.00000000
0.00000000
0.00000000
0.00000000
0.00000000
0.00000000
0.00000000
0.00000000
0.00000000
0.00000000
0.00000000
0.00000000
0.00000000
0.00000000
0.00000000
0.00000000
0.00000000
0.00000000
0.00000000
0.00000000
0.00000000
0.00000000
0.00000000
0.00000000
0.00000000
0.00000000
0.00000000
0.00000000
0.00000000
0.00000000
0.00000000
0.00000000
0.00000000
0.00000000
0.00000000
0.00000000
0.00000000
0.00000000
0.00000000
0.00000000
0.00000000
0.00000000
0.00000000
0.00000000
0.00000000
0.00000000
0.00000000
0.00000000
0.00000000
0.00000000
0.00000000
0.00000000
0.00000000
0.00000000
0.00000000
0.00000000
0.00000000
0.00000000
0.00000000
0.00000000
0.00000000
0.00000000
0.00000000
0.00000000
0.00000000
0.00000000
0.00000000
0.00000000
0.00000000
0.00000000
0.00000002
0.00000005
0.00000015
0.00000049
0.00000158
0.00000507
0.00001639
0.00005319
0.00017372
0.00057105
0.00189319
0.00633541
0.02129454
0.07061771
0.21307642
0.47501409
0.69139576
0.83708252
0.92177727
0.96356334
0.98273317
0.99145048
0.99555552
0.99759325
0.99866604
0.99925150
0.99956174
0.99971498
0.99978470
0.99981141
0.99982448
0.99984718
0.99988406
0.99991921
0.99994127
0.99995102
0.99994007
0.99987668
0.99958045
0.99835482
0.99356255
0.97710908
0.93421383
0.86500376
0.83602054
0.89339318
0.96219702
0.99031331
0.99747589
0.99782989
0.99123483
0.95680929
0.80907105
0.48461271
0.30855844
0.46029653
0.78505215
0.94997476
0.98978389
0.99797257
0.99956424
0.99982282
0.99978708
0.99974555
0.99979763
0.99989371
0.99995837
0.99998483
0.99999126
0.99998464
0.99995774
0.99989232
0.99979572
0.99974466
0.99978692
0.99982194
0.99955862
0.99793414
0.98955845
0.94858992
0.77789689
0.44223595
0.28894862
0.45270179
0.78964960
0.95220909
0.99034588
0.99767182
0.99746085
0.99030610
0.96182149
0.89039687
0.82941762
0.85589554
0.92795501
0.97452762
0.99278404
0.99815868
0.99953361
0.99986595
0.99993748
0.99995000
0.99994014
0.99991701
0.99987903
0.99983892
0.99981330
0.99979831
0.99977077
0.99969806
0.99953702
0.99920711
0.99858361
0.99742321
0.99519384
0.99068683
0.98110240
0.96006709
0.91453570
0.82345502
0.67111648
0.44528213
0.19066068
0.06216881
0.01870675
0.00556781
0.00166475
0.00050224
0.00015288
0.00004694
0.00001447
0.00000448
0.00000139
0.00000043
0.00000014
0.00000004
0.00000001
0.00000000
0.00000000
0.00000000
0.00000000
0.00000000
0.00000000
0.00000000
0.00000000
0.00000000
0.00000000
0.00000000
0.00000000
0.00000000
0.00000000
0.00000000
0.00000000
0.00000000
0.00000000
0.00000000
0.00000000
0.00000000
0.00000000
0.00000000
0.00000000
0.00000000
0.00000000
0.00000000
0.00000000
0.00000000
0.00000000
0.00000000
0.00000000
0.00000000
0.00000000
0.00000000
0.00000000
0.00000000
0.00000000
0.00000000
0.00000000
0.00000000
0.00000000
0.00000000
0.00000000
0.00000000
0.00000000
0.00000000
0.00000000
0.00000000
0.00000000
0.00000000
0.00000000
0.00000000
0.00000000
0.00000000
0.00000000
0.00000000
0.00000000
0.00000000
0.00000000
0.00000000
0.00000000
0.00000000
0.00000000
0.00000000
0.00000000
0.00000000
0.00000000
0.00000000
0.00000000
0.00000000
0.00000000
0.00000000
0.00000000
0.00000000
0.00000000
0.00000000
0.00000000
0.00000000
0.00000000
0.00000000
0.00000000
0.00000000
0.00000000
0.00000000
0.00000000
0.00000000
0.00000000
0.00000000
0.00000000
0.00000000
0.00000000
0.00000000
0.00000000
0.00000000
0.00000000
0.00000000
0.00000000
0.00000000
0.00000000
0.00000000
0.00000000
0.00000000
0.00000000
0.00000000
0.00000000
0.00000000