# vtk DataFile Version 3.0
Concentration output
ASCII
DATASET STRUCTURED_POINTS
DIMENSIONS 298 298 1
ORIGIN 0 0 0
SPACING 0.03 0.03 1.0
POINT_DATA 88804
SCALARS Variable float 1
LOOKUP_TABLE default
0.00000000
0.00000000
0.00000000
0.00000000
0.00000000
0.00000000
0.00000000
0.00000000
0.00000000
0.00000000
0.00000000
0.00000000
0.00000000
0.00000000
0.00000000
0.00000000
0.00000000
0.00000000
0.00000000
0.00000000
0.00000000
0.00000000
0.00000000
0.00000000
0.00000000
0.00000000
0.00000000
0.00000000
0.00000000
0.00000000
0.00000000
0.00000000
0.00000000
0.00000000
0.00000000
0.00000000
0.00000000
0.00000000
0.00000000
0.00000000
0.00000000
0.00000000
0.00000000
0.00000000
0.00000000
0.00000000
0.00000000
0.00000000
0.00000000
0.00000000
0.00000000
0.00000000
0.00000000
0.00000000
0.00000000
0.00000000
0.00000000
0.00000001
0.00000001
0.00000001
0.00000002
0.00000003
0.00000005
0.00000007
0.00000010
0.00000015
0.00000021
0.00000031
0.00000045
0.00000066
0.00000095
0.00000136
0.00000194
0.00000276
0.00000392
0.00000554
0.00000780
0.00001094
0.00001528
0.00002126
0.00002947
0.00004070
0.00005598
0.00007671
0.00010473
0.00014243
0.00019299
0.00026052
0.00035036
0.00046946
0.00062674
0.00083366
0.00110489
0.00145912
0.00192007
0.00251775
0.00329000
0.00428438
0.00556045
0.00719262
0.00927362
0.01191870
0.01527085
0.01950720
0.02484681
0.03156043
0.03998233
0.05052489
0.06369626
0.08012119
0.10056467
0.12595627
0.15740985
0.19622697
0.24386018
0.30179021
0.37124185
0.45261954
0.54455572
0.64263762
0.73853424
0.82155689
0.88462226
0.92861986
0.95819239
0.97724035
0.98863272
0.99445084
0.99548872
0.99366925
0.99294236
0.99902401
1.00982550
1.02061775
1.02968517
1.03736663
1.04507580
1.05235538
1.05867981
1.06413725
1.06885681
1.07291051
1.07634849
1.07921141
1.08153977
1.08337467
1.08475560
1.08571723
1.08628632
1.08647959
1.08630247
1.08574867
1.08480058
1.08343052
1.08160294
1.07927740
1.07641197
1.07296567
1.06889746
1.06415850
1.05868054
1.05231183
1.04493056
1.03746563
1.02988013
1.02105296
1.01027484
0.99928843
0.99288400
0.99404479
0.99643577
0.99540548
0.98912218
0.97718782
0.95764091
0.92759787
0.88276490
0.81859313
0.73462943
0.63829978
0.54033422
0.44888071
0.36813329
0.29931740
0.24195423
0.19479214
0.15634915
0.12518350
0.10000847
0.07972509
0.06341688
0.05032963
0.03984707
0.03146756
0.02478362
0.01946462
0.01524246
0.01189998
0.00926143
0.00718480
0.00555552
0.00428134
0.00328818
0.00251670
0.00191949
0.00145884
0.00110478
0.00083364
0.00062676
0.00046951
0.00035041
0.00026056
0.00019303
0.00014247
0.00010476
0.00007674
0.00005600
0.00004071
0.00002948
0.00002127
0.00001529
0.00001094
0.00000780
0.00000554
0.00000392
0.00000277
0.00000194
0.00000136
0.00000095
0.00000066
0.00000045
0.00000031
0.00000021
0.00000015
0.00000010
0.00000007
0.00000005
0.00000003
0.00000002
0.00000001
0.00000001
0.00000001
0.00000000
0.00000000
0.00000000
0.00000000
0.00000000
0.00000000
0.00000000
0.00000000
0.00000000
0.00000000
0.00000000
0.00000000
0.00000000
0.00000000
0.00000000
0.00000000
0.00000000
0.00000000
0.00000000
0.00000000
0.00000000
0.00000000
0.00000000
0.00000000
0.00000000
0.00000000
0.00000000
0.00000000
0.00000000
0.00000000
0.00000000
0.00000000
0.00000000
0.00000000
0.00000000
0.00000000
0.00000000
0.00000000
0.00000000
0.00000000
0.00000000
0.00000000
0.00000000
0.00000000
0.00000000
0.00000000
0.00000000
0.00000000
0.00000000
0.00000000
0.00000000
0.00000000
0.00000000
0.00000000
0.00000000
0.00000000
0.00000000
0.00000000
0.00000000
0.00000000
0.00000000
0.00000000
0.00000000
0.00000000
0.00000000
0.00000000
0.00000000
0.00000000
0.00000000
0.00000000
0.00000000
0.00000000
0.00000000
0.00000000
0.00000000
0.00000000
0.00000000
0.00000000
0.00000000
0.00000000
0.00000000
0.00000000
0.00000000
0.00000000
0.00000000
0.00000000
0.00000000
0.00000000
0.00000000
0.00000000
0.00000000
0.00000000
0.00000000
0.00000000
0.00000000
0.00000000
0.00000000
0.00000000
0.00000000
0.00000000
0.00000000
0.00000000
0.00000000
0.00000000
0.00000000
0.00000000
0.00000000
0.00000000
0.00000000
0.00000000
0.00000000
0.00000000
0.00000000
0.00000001
0.00000001
0.00000001
0.00000002
0.00000003
0.00000005
0.00000007
0.00000010
0.00000015
0.00000021
0.00000031
0.00000045
0.00000065
0.00000094
0.00000135
0.00000193
0.00000275
0.00000390
0.00000552
0.00000776
0.00001089
0.00001521
0.00002116
0.00002933
0.00004050
0.00005571
0.00007634
0.00010422
0.00014174
0.00019204
0.00025923
0.00034863
0.00046712
0.00062360
0.00082947
0.00109931
0.00145170
0.00191025
0.00250479
0.00327296
0.00426203
0.00553124
0.00715456
0.00922417
0.01185467
0.01518820
0.01940087
0.02471058
0.03138668
0.03976202
0.05024778
0.06335163
0.07969991
0.10006372
0.12538817
0.15682149
0.19573577
0.24371942
0.30250065
0.37371677
0.45836950
0.55570832
0.66129685
0.76478438
0.85109629
0.91203957
0.95088120
0.97511463
0.98941413
0.99749753
1.00172719
1.00211372
1.00029112
0.99827410
1.00192450
1.01270447
1.02323648
1.03184992
1.03888210
1.04633530
1.05304691
1.05897240
1.06418478
1.06875280
1.07271128
1.07608421
1.07889918
1.08119031
1.08299603
1.08435488
1.08530109
1.08586117
1.08605164
1.08587788
1.08533367
1.08440163
1.08305433
1.08125661
1.07896900
1.07615220
1.07277156
1.06879957
1.06421209
1.05898198
1.05304481
1.04631002
1.03903732
1.03205377
1.02379510
1.01333587
1.00311242
0.99952167
1.00139829
1.00383428
1.00270633
0.99800758
0.98947706
0.97475752
0.95025136
0.91031692
0.84812497
0.76045988
0.65639850
0.55101725
0.45430699
0.37041095
0.29991482
0.24175265
0.19426968
0.15574563
0.12460852
0.09950477
0.07930299
0.06307226
0.05005282
0.03962712
0.03129412
0.02464764
0.01935848
0.01515993
0.01183603
0.00921204
0.00714678
0.00552634
0.00425901
0.00327115
0.00250374
0.00190967
0.00145142
0.00109919
0.00082944
0.00062363
0.00046717
0.00034868
0.00025928
0.00019208
0.00014177
0.00010425
0.00007636
0.00005573
0.00004051
0.00002934
0.00002117
0.00001521
0.00001089
0.00000777
0.00000552
0.00000390
0.00000275
0.00000193
0.00000135
0.00000094
0.00000065
0.00000045
0.00000031
0.00000021
0.00000015
0.00000010
0.00000007
0.00000005
0.00000003
0.00000002
0.00000001
0.00000001
0.00000001
0.00000000
0.00000000
0.00000000
0.00000000
0.00000000
0.00000000
0.00000000
0.00000000
0.00000000
0.00000000
0.00000000
0.00000000
0.00000000
0.00000000
0.00000000
0.00000000
0.00000000
0.00000000
0.00000000
0.00000000
0.00000000
0.00000000
0.00000000
0.00000000
0.00000000
0.00000000
0.00000000
0.00000000
0.00000000
0.00000000
0.00000000
0.00000000
0.00000000
0.00000000
0.00000000
0.00000000
0.00000000
0.00000000
0.00000000
0.00000000
0.00000000
0.00000000
0.00000000
0.00000000
0.00000000
0.00000000
0.00000000
0.00000000
0.00000000
0.00000000
0.00000000
0.00000000
0.00000000
0.00000000
0.00000000
0.00000000
0.00000000
0.00000000
0.00000000
0.00000000
0.00000000
0.00000000
0.00000000
0.00000000
0.00000000
0.00000000
0.00000000
0.00000000
0.00000000
0.00000000
0.00000000
0.00000000
0.00000000
0.00000000
0.00000000
0.00000000
0.00000000
0.00000000
0.00000000
0.00000000
0.00000000
0.00000000
0.00000000
0.00000000
0.00000000
0.00000000
0.00000000
0.00000000
0.00000000
0.00000000
0.00000000
0.00000000
0.00000000
0.00000000
0.00000000
0.00000000
0.00000000
0.00000000
0.00000000
0.00000000
0.00000000
0.00000000
0.00000000
0.00000000
0.00000000
0.00000000
0.00000000
0.00000000
0.00000000
0.00000000
0.00000000
0.00000000
0.00000000
0.00000001
0.00000001
0.00000001
0.00000002
0.00000003
0.00000004
0.00000007
0.00000010
0.00000014
0.00000021
0.00000031
0.00000045
0.00000065
0.00000093
0.00000134
0.00000191
0.00000273
0.00000387
0.00000546
0.00000769
0.00001078
0.00001506
0.00002096
0.00002905
0.00004011
0.00005517
0.00007560
0.00010320
0.00014035
0.00019016
0.00025668
0.00034518
0.00046248
0.00061738
0.00082115
0.00108822
0.00143698
0.00189076
0.00247908
0.00323914
0.00421769
0.00547327
0.00707902
0.00912603
0.01172754
0.01502405
0.01918961
0.02443967
0.03104078
0.03932269
0.04969366
0.06265954
0.07884803
0.09903892
0.12420182
0.15554159
0.19455004
0.24305407
0.30323223
0.37751445
0.46814472
0.57583403
0.69638299
0.81493544
0.90611868
0.96136018
0.99070612
1.00503018
1.01107916
1.01365777
1.01500838
1.01509330
1.01424029
1.01372994
1.01607194
1.02247217
1.03005473
1.03686097
1.04270818
1.04852421
1.05411902
1.05934952
1.06414908
1.06846686
1.07226436
1.07552394
1.07825194
1.08047321
1.08222305
1.08353917
1.08445549
1.08499812
1.08518318
1.08501589
1.08449027
1.08358935
1.08228612
1.08054567
1.07832928
1.07560075
1.07233467
1.06852501
1.06419097
1.05937816
1.05413745
1.04857840
1.04280775
1.03715382
1.03066100
1.02336284
1.01737301
1.01511029
1.01569242
1.01663195
1.01617186
1.01448856
1.01138438
1.00503040
0.99060674
0.96001776
0.90309906
0.80979834
0.69031678
0.57016750
0.46345249
0.37383903
0.30044245
0.24098051
0.19303071
0.15444067
0.12341138
0.09847609
0.07845035
0.06238067
0.04949956
0.03918864
0.03094894
0.02437728
0.01914761
0.01499605
0.01170909
0.00911402
0.00707131
0.00546841
0.00421469
0.00323734
0.00247803
0.00189019
0.00143669
0.00108810
0.00082112
0.00061740
0.00046253
0.00034523
0.00025672
0.00019020
0.00014039
0.00010323
0.00007562
0.00005519
0.00004012
0.00002906
0.00002096
0.00001507
0.00001079
0.00000769
0.00000547
0.00000387
0.00000273
0.00000191
0.00000134
0.00000093
0.00000065
0.00000045
0.00000031
0.00000021
0.00000014
0.00000010
0.00000007
0.00000004
0.00000003
0.00000002
0.00000001
0.00000001
0.00000001
0.00000000
0.00000000
0.00000000
0.00000000
0.00000000
0.00000000
0.00000000
0.00000000
0.00000000
0.00000000
0.00000000
0.00000000
0.00000000
0.00000000
0.00000000
0.00000000
0.00000000
0.00000000
0.00000000
0.00000000
0.00000000
0.00000000
0.00000000
0.00000000
0.00000000
0.00000000
0.00000000
0.00000000
0.00000000
0.00000000
0.00000000
0.00000000
0.00000000
0.00000000
0.00000000
0.00000000
0.00000000
0.00000000
0.00000000
0.00000000
0.00000000
0.00000000
0.00000000
0.00000000
0.00000000
0.00000000
0.00000000
0.00000000
0.00000000
0.00000000
0.00000000
0.00000000
0.00000000
0.00000000
0.00000000
0.00000000
0.00000000
0.00000000
0.00000000
0.00000000
0.00000000
0.00000000
0.00000000
0.00000000
0.00000000
0.00000000
0.00000000
0.00000000
0.00000000
0.00000000
0.00000000
0.00000000
0.00000000
0.00000000
0.00000000
0.00000000
0.00000000
0.00000000
0.00000000
0.00000000
0.00000000
0.00000000
0.00000000
0.00000000
0.00000000
0.00000000
0.00000000
0.00000000
0.00000000
0.00000000
0.00000000
0.00000000
0.00000000
0.00000000
0.00000000
0.00000000
0.00000000
0.00000000
0.00000000
0.00000000
0.00000000
0.00000000
0.00000000
0.00000000
0.00000000
0.00000000
0.00000000
0.00000000
0.00000000
0.00000000
0.00000000
0.00000000
0.00000000
0.00000001
0.00000001
0.00000001
0.00000002
0.00000003
0.00000004
0.00000007
0.00000010
0.00000014
0.00000021
0.00000030
0.00000044
0.00000064
0.00000092
0.00000132
0.00000189
0.00000269
0.00000381
0.00000539
0.00000758
0.00001063
0.00001485
0.00002066
0.00002863
0.00003953
0.00005437
0.00007450
0.00010170
0.00013830
0.00018737
0.00025289
0.00034007
0.00045561
0.00060816
0.00080882
0.00107180
0.00141517
0.00186190
0.00244100
0.00318906
0.00415203
0.00538744
0.00696715
0.00898066
0.01153919
0.01478072
0.01887623
0.02403739
0.03052627
0.03866752
0.04886401
0.06161687
0.07755179
0.09745388
0.12231450
0.15339527
0.19231574
0.24117126
0.30267809
0.38027788
0.47794653
0.59871452
0.73910604
0.87535821
0.96316871
1.00431717
1.01953463
1.02464599
1.02627642
1.02702501
1.02772540
1.02821114
1.02841839
1.02890050
1.03069377
1.03422424
1.03843015
1.04251703
1.04640119
1.05055606
1.05496644
1.05945371
1.06381439
1.06786748
1.07148859
1.07461405
1.07723012
1.07935586
1.08102672
1.08228175
1.08315536
1.08367318
1.08385056
1.08369239
1.08319314
1.08233672
1.08109659
1.07943725
1.07731844
1.07470359
1.07157294
1.06794063
1.06387254
1.05949876
1.05501416
1.05064772
1.04658932
1.04284485
1.03897244
1.03501213
1.03172573
1.03011190
1.02968878
1.02940068
1.02862934
1.02771741
1.02658929
1.02467281
1.01914845
1.00321433
0.96022060
0.86909537
0.73129039
0.59169759
0.47241582
0.37613399
0.29964389
0.23897624
0.19073902
0.15226928
0.12151479
0.09688896
0.07715498
0.06133980
0.04867178
0.03853506
0.03043566
0.02397591
0.01883487
0.01475316
0.01152102
0.00896883
0.00695956
0.00538265
0.00414906
0.00318728
0.00243997
0.00186133
0.00141489
0.00107168
0.00080879
0.00060818
0.00045565
0.00034012
0.00025294
0.00018741
0.00013833
0.00010173
0.00007452
0.00005439
0.00003954
0.00002864
0.00002066
0.00001485
0.00001063
0.00000758
0.00000539
0.00000381
0.00000269
0.00000189
0.00000132
0.00000092
0.00000064
0.00000044
0.00000030
0.00000021
0.00000014
0.00000010
0.00000007
0.00000004
0.00000003
0.00000002
0.00000001
0.00000001
0.00000001
0.00000000
0.00000000
0.00000000
0.00000000
0.00000000
0.00000000
0.00000000
0.00000000
0.00000000
0.00000000
0.00000000
0.00000000
0.00000000
0.00000000
0.00000000
0.00000000
0.00000000
0.00000000
0.00000000
0.00000000
0.00000000
0.00000000
0.00000000
0.00000000
0.00000000
0.00000000
0.00000000
0.00000000
0.00000000
0.00000000
0.00000000
0.00000000
0.00000000
0.00000000
0.00000000
0.00000000
0.00000000
0.00000000
0.00000000
0.00000000
0.00000000
0.00000000
0.00000000
0.00000000
0.00000000
0.00000000
0.00000000
0.00000000
0.00000000
0.00000000
0.00000000
0.00000000
0.00000000
0.00000000
0.00000000
0.00000000
0.00000000
0.00000000
0.00000000
0.00000000
0.00000000
0.00000000
0.00000000
0.00000000
0.00000000
0.00000000
0.00000000
0.00000000
0.00000000
0.00000000
0.00000000
0.00000000
0.00000000
0.00000000
0.00000000
0.00000000
0.00000000
0.00000000
0.00000000
0.00000000
0.00000000
0.00000000
0.00000000
0.00000000
0.00000000
0.00000000
0.00000000
0.00000000
0.00000000
0.00000000
0.00000000
0.00000000
0.00000000
0.00000000
0.00000000
0.00000000
0.00000000
0.00000000
0.00000000
0.00000000
0.00000000
0.00000000
0.00000000
0.00000000
0.00000000
0.00000000
0.00000000
0.00000000
0.00000000
0.00000000
0.00000000
0.00000000
0.00000000
0.00000001
0.00000001
0.00000001
0.00000002
0.00000003
0.00000004
0.00000006
0.00000010
0.00000014
0.00000020
0.00000030
0.00000043
0.00000063
0.00000090
0.00000129
0.00000185
0.00000264
0.00000374
0.00000528
0.00000744
0.00001043
0.00001456
0.00002026
0.00002808
0.00003877
0.00005333
0.00007306
0.00009973
0.00013561
0.00018371
0.00024794
0.00033338
0.00044660
0.00059608
0.00079268
0.00105029
0.00138662
0.00182411
0.00239114
0.00312349
0.00406605
0.00527505
0.00682066
0.00879026
0.01129241
0.01446176
0.01846510
0.02350895
0.02984909
0.03780266
0.04776382
0.06022439
0.07580141
0.09527512
0.11964261
0.15019571
0.18863715
0.23725494
0.29917818
0.37869207
0.48135922
0.61247958
0.76900377
0.91506823
0.99313937
1.02471559
1.03465465
1.03687280
1.03714637
1.03760592
1.03875670
1.04019517
1.04136527
1.04227871
1.04337453
1.04483087
1.04633147
1.04765515
1.04925468
1.05169080
1.05501025
1.05889496
1.06294056
1.06681213
1.07029744
1.07329628
1.07578791
1.07779739
1.07936864
1.08054637
1.08136666
1.08185401
1.08202200
1.08187480
1.08140784
1.08060697
1.07944682
1.07789008
1.07589049
1.07340248
1.07039961
1.06690244
1.06301345
1.05895086
1.05506111
1.05177134
1.04942244
1.04793760
1.04680902
1.04549758
1.04421377
1.04326787
1.04241349
1.04118019
1.03954617
1.03812168
1.03736979
1.03682835
1.03418458
1.02341842
0.99009097
0.90810859
0.75927089
0.60402502
0.47499642
0.37412594
0.29593898
0.23496610
0.18702163
0.14905696
0.11884162
0.09471335
0.07540891
0.05995142
0.04757498
0.03767280
0.02976039
0.02344881
0.01842466
0.01443481
0.01127464
0.00877869
0.00681322
0.00527035
0.00406314
0.00312174
0.00239012
0.00182354
0.00138633
0.00105017
0.00079265
0.00059610
0.00044664
0.00033342
0.00024798
0.00018375
0.00013564
0.00009976
0.00007309
0.00005334
0.00003879
0.00002809
0.00002027
0.00001457
0.00001043
0.00000744
0.00000529
0.00000374
0.00000264
0.00000185
0.00000130
0.00000090
0.00000063
0.00000043
0.00000030
0.00000020
0.00000014
0.00000010
0.00000006
0.00000004
0.00000003
0.00000002
0.00000001
0.00000001
0.00000001
0.00000000
0.00000000
0.00000000
0.00000000
0.00000000
0.00000000
0.00000000
0.00000000
0.00000000
0.00000000
0.00000000
0.00000000
0.00000000
0.00000000
0.00000000
0.00000000
0.00000000
0.00000000
0.00000000
0.00000000
0.00000000
0.00000000
0.00000000
0.00000000
0.00000000
0.00000000
0.00000000
0.00000000
0.00000000
0.00000000
0.00000000
0.00000000
0.00000000
0.00000000
0.00000000
0.00000000
0.00000000
0.00000000
0.00000000
0.00000000
0.00000000
0.00000000
0.00000000
0.00000000
0.00000000
0.00000000
0.00000000
0.00000000
0.00000000
0.00000000
0.00000000
0.00000000
0.00000000
0.00000000
0.00000000
0.00000000
0.00000000
0.00000000
0.00000000
0.00000000
0.00000000
0.00000000
0.00000000
0.00000000
0.00000000
0.00000000
0.00000000
0.00000000
0.00000000
0.00000000
0.00000000
0.00000000
0.00000000
0.00000000
0.00000000
0.00000000
0.00000000
0.00000000
0.00000000
0.00000000
0.00000000
0.00000000
0.00000000
0.00000000
0.00000000
0.00000000
0.00000000
0.00000000
0.00000000
0.00000000
0.00000000
0.00000000
0.00000000
0.00000000
0.00000000
0.00000000
0.00000000
0.00000000
0.00000000
0.00000000
0.00000000
0.00000000
0.00000000
0.00000000
0.00000000
0.00000000
0.00000000
0.00000000
0.00000000
0.00000000
0.00000000
0.00000000
0.00000000
0.00000001
0.00000001
0.00000001
0.00000002
0.00000003
0.00000004
0.00000006
0.00000009
0.00000014
0.00000020
0.00000029
0.00000042
0.00000061
0.00000088
0.00000126
0.00000181
0.00000257
0.00000365
0.00000516
0.00000726
0.00001018
0.00001422
0.00001978
0.00002741
0.00003785
0.00005205
0.00007131
0.00009732
0.00013232
0.00017924
0.00024188
0.00032520
0.00043560
0.00058132
0.00077296
0.00102402
0.00135174
0.00177795
0.00233026
0.00304342
0.00396107
0.00513781
0.00664177
0.00855772
0.01099092
0.01407189
0.01796217
0.02286173
0.02901811
0.03673826
0.04640380
0.05849138
0.07360022
0.09249057
0.11613897
0.14582014
0.18323121
0.23068271
0.29138459
0.36982373
0.47195280
0.60392810
0.76358721
0.91489757
0.99779054
1.03227370
1.04269091
1.04444434
1.04428153
1.04511301
1.04756097
1.05062722
1.05295113
1.05407634
1.05443996
1.05425514
1.05326976
1.05157650
1.05046349
1.05115498
1.05366186
1.05730182
1.06132298
1.06519588
1.06863336
1.07152901
1.07388514
1.07575525
1.07720511
1.07829073
1.07905007
1.07950405
1.07966194
1.07952621
1.07909436
1.07835691
1.07729218
1.07586093
1.07400507
1.07165628
1.06875852
1.06530801
1.06141189
1.05736217
1.05370003
1.05118981
1.05054057
1.05177328
1.05359099
1.05472812
1.05508251
1.05488193
1.05386449
1.05153445
1.04825451
1.04542482
1.04426018
1.04411974
1.04191446
1.03051589
0.99339918
0.90607440
0.75228369
0.59456307
0.46516926
0.36505924
0.28806854
0.22837137
0.18161765
0.14469206
0.11535045
0.09194022
0.07321711
0.05822566
0.04622034
0.03661226
0.02893212
0.02280345
0.01792298
0.01404577
0.01097369
0.00854648
0.00663454
0.00513324
0.00395824
0.00304170
0.00232926
0.00177740
0.00135146
0.00102390
0.00077292
0.00058134
0.00043563
0.00032524
0.00024192
0.00017928
0.00013236
0.00009735
0.00007133
0.00005206
0.00003786
0.00002742
0.00001979
0.00001422
0.00001018
0.00000726
0.00000516
0.00000365
0.00000258
0.00000181
0.00000127
0.00000088
0.00000061
0.00000042
0.00000029
0.00000020
0.00000014
0.00000009
0.00000006
0.00000004
0.00000003
0.00000002
0.00000001
0.00000001
0.00000001
0.00000000
0.00000000
0.00000000
0.00000000
0.00000000
0.00000000
0.00000000
0.00000000
0.00000000
0.00000000
0.00000000
0.00000000
0.00000000
0.00000000
0.00000000
0.00000000
0.00000000
0.00000000
0.00000000
0.00000000
0.00000000
0.00000000
0.00000000
0.00000000
0.00000000
0.00000000
0.00000000
0.00000000
0.00000000
0.00000000
0.00000000
0.00000000
0.00000000
0.00000000
0.00000000
0.00000000
0.00000000
0.00000000
0.00000000
0.00000000
0.00000000
0.00000000
0.00000000
0.00000000
0.00000000
0.00000000
0.00000000
0.00000000
0.00000000
0.00000000
0.00000000
0.00000000
0.00000000
0.00000000
0.00000000
0.00000000
0.00000000
0.00000000
0.00000000
0.00000000
0.00000000
0.00000000
0.00000000
0.00000000
0.00000000
0.00000000
0.00000000
0.00000000
0.00000000
0.00000000
0.00000000
0.00000000
0.00000000
0.00000000
0.00000000
0.00000000
0.00000000
0.00000000
0.00000000
0.00000000
0.00000000
0.00000000
0.00000000
0.00000000
0.00000000
0.00000000
0.00000000
0.00000000
0.00000000
0.00000000
0.00000000
0.00000000
0.00000000
0.00000000
0.00000000
0.00000000
0.00000000
0.00000000
0.00000000
0.00000000
0.00000000
0.00000000
0.00000000
0.00000000
0.00000000
0.00000000
0.00000000
0.00000000
0.00000000
0.00000000
0.00000000
0.00000000
0.00000000
0.00000001
0.00000001
0.00000001
0.00000002
0.00000003
0.00000004
0.00000006
0.00000009
0.00000013
0.00000019
0.00000028
0.00000041
0.00000059
0.00000086
0.00000123
0.00000176
0.00000250
0.00000355
0.00000501
0.00000706
0.00000989
0.00001382
0.00001922
0.00002663
0.00003676
0.00005055
0.00006925
0.00009451
0.00012849
0.00017402
0.00023481
0.00031566
0.00042276
0.00056411
0.00074995
0.00099338
0.00131106
0.00172412
0.00225925
0.00295005
0.00383867
0.00497781
0.00643320
0.00828657
0.01063932
0.01361702
0.01737502
0.02210533
0.02804540
0.03548927
0.04480202
0.05643895
0.07097150
0.08912323
0.11182102
0.14026968
0.17606232
0.22134364
0.27903761
0.35311445
0.44865301
0.57064982
0.71816795
0.86812960
0.96868582
1.01932628
1.03849221
1.04346729
1.04431304
1.04666919
1.05209664
1.05866923
1.06306311
1.06442857
1.06408988
1.06254021
1.05904840
1.05347064
1.04888663
1.04794051
1.05030220
1.05438630
1.05887328
1.06301325
1.06650552
1.06930724
1.07149649
1.07318883
1.07448907
1.07546914
1.07616523
1.07658808
1.07673703
1.07661081
1.07621127
1.07553936
1.07458408
1.07330798
1.07163643
1.06946082
1.06666134
1.06315623
1.05898714
1.05445631
1.05031454
1.04789682
1.04889382
1.05356509
1.05916531
1.06281147
1.06451290
1.06507799
1.06391300
1.05953178
1.05272305
1.04678875
1.04383761
1.04247081
1.03670184
1.01569154
0.96197248
0.85711638
0.70678657
0.56151093
0.44203917
0.34848539
0.27582015
0.21910521
0.17450288
0.13918177
0.11106203
0.08859432
0.07060377
0.05618412
0.04462617
0.03536853
0.02796299
0.02204946
0.01733743
0.01359195
0.01062276
0.00827576
0.00642624
0.00497340
0.00383592
0.00294839
0.00225828
0.00172358
0.00131078
0.00099325
0.00074991
0.00056411
0.00042279
0.00031570
0.00023485
0.00017406
0.00012852
0.00009453
0.00006927
0.00005057
0.00003677
0.00002664
0.00001922
0.00001382
0.00000990
0.00000706
0.00000502
0.00000355
0.00000250
0.00000176
0.00000123
0.00000086
0.00000059
0.00000041
0.00000028
0.00000019
0.00000013
0.00000009
0.00000006
0.00000004
0.00000003
0.00000002
0.00000001
0.00000001
0.00000001
0.00000000
0.00000000
0.00000000
0.00000000
0.00000000
0.00000000
0.00000000
0.00000000
0.00000000
0.00000000
0.00000000
0.00000000
0.00000000
0.00000000
0.00000000
0.00000000
0.00000000
0.00000000
0.00000000
0.00000000
0.00000000
0.00000000
0.00000000
0.00000000
0.00000000
0.00000000
0.00000000
0.00000000
0.00000000
0.00000000
0.00000000
0.00000000
0.00000000
0.00000000
0.00000000
0.00000000
0.00000000
0.00000000
0.00000000
0.00000000
0.00000000
0.00000000
0.00000000
0.00000000
0.00000000
0.00000000
0.00000000
0.00000000
0.00000000
0.00000000
0.00000000
0.00000000
0.00000000
0.00000000
0.00000000
0.00000000
0.00000000
0.00000000
0.00000000
0.00000000
0.00000000
0.00000000
0.00000000
0.00000000
0.00000000
0.00000000
0.00000000
0.00000000
0.00000000
0.00000000
0.00000000
0.00000000
0.00000000
0.00000000
0.00000000
0.00000000
0.00000000
0.00000000
0.00000000
0.00000000
0.00000000
0.00000000
0.00000000
0.00000000
0.00000000
0.00000000
0.00000000
0.00000000
0.00000000
0.00000000
0.00000000
0.00000000
0.00000000
0.00000000
0.00000000
0.00000000
0.00000000
0.00000000
0.00000000
0.00000000
0.00000000
0.00000000
0.00000000
0.00000000
0.00000000
0.00000000
0.00000000
0.00000000
0.00000000
0.00000000
0.00000000
0.00000000
0.00000000
0.00000001
0.00000001
0.00000001
0.00000002
0.00000003
0.00000004
0.00000006
0.00000009
0.00000013
0.00000019
0.00000027
0.00000040
0.00000058
0.00000083
0.00000119
0.00000170
0.00000242
0.00000343
0.00000485
0.00000682
0.00000957
0.00001336
0.00001858
0.00002575
0.00003554
0.00004886
0.00006693
0.00009133
0.00012415
0.00016813
0.00022683
0.00030488
0.00040826
0.00054467
0.00072398
0.00095880
0.00126516
0.00166340
0.00217917
0.00284477
0.00370066
0.00479744
0.00619810
0.00798093
0.01024295
0.01310416
0.01671273
0.02125155
0.02694624
0.03407550
0.04298425
0.05410087
0.06796022
0.08523471
0.10677721
0.13368087
0.16736197
0.20967166
0.26302999
0.33053322
0.41583554
0.52220720
0.64913007
0.78427636
0.89692087
0.96783577
1.00541784
1.02132471
1.02694794
1.03349134
1.04582183
1.06081078
1.07044558
1.07252446
1.07155968
1.06900179
1.06261866
1.05174093
1.04280905
1.04077994
1.04442133
1.05012287
1.05574875
1.06043158
1.06402461
1.06667441
1.06861183
1.07005615
1.07116763
1.07203334
1.07267543
1.07307961
1.07322451
1.07310128
1.07272021
1.07210394
1.07126732
1.07018729
1.06877344
1.06686015
1.06422165
1.06062089
1.05590517
1.05020607
1.04436181
1.04061209
1.04264252
1.05188724
1.06238435
1.06899240
1.07173637
1.07296081
1.07114498
1.06156216
1.04602560
1.03272033
1.02527056
1.01854070
1.00106724
0.96135696
0.88743281
0.77291810
0.63876070
0.51409893
0.40990736
0.32632409
0.26006975
0.20759565
0.16590722
0.13266208
0.10606465
0.08473727
0.06761391
0.05386061
0.04281827
0.03396143
0.02686829
0.02119863
0.01667709
0.01308035
0.01022721
0.00797063
0.00619145
0.00479321
0.00369803
0.00284317
0.00217823
0.00166287
0.00126488
0.00095867
0.00072394
0.00054467
0.00040829
0.00030492
0.00022687
0.00016816
0.00012418
0.00009135
0.00006695
0.00004888
0.00003555
0.00002576
0.00001859
0.00001336
0.00000957
0.00000683
0.00000485
0.00000343
0.00000242
0.00000170
0.00000119
0.00000083
0.00000058
0.00000040
0.00000027
0.00000019
0.00000013
0.00000009
0.00000006
0.00000004
0.00000003
0.00000002
0.00000001
0.00000001
0.00000001
0.00000000
0.00000000
0.00000000
0.00000000
0.00000000
0.00000000
0.00000000
0.00000000
0.00000000
0.00000000
0.00000000
0.00000000
0.00000000
0.00000000
0.00000000
0.00000000
0.00000000
0.00000000
0.00000000
0.00000000
0.00000000
0.00000000
0.00000000
0.00000000
0.00000000
0.00000000
0.00000000
0.00000000
0.00000000
0.00000000
0.00000000
0.00000000
0.00000000
0.00000000
0.00000000
0.00000000
0.00000000
0.00000000
0.00000000
0.00000000
0.00000000
0.00000000
0.00000000
0.00000000
0.00000000
0.00000000
0.00000000
0.00000000
0.00000000
0.00000000
0.00000000
0.00000000
0.00000000
0.00000000
0.00000000
0.00000000
0.00000000
0.00000000
0.00000000
0.00000000
0.00000000
0.00000000
0.00000000
0.00000000
0.00000000
0.00000000
0.00000000
0.00000000
0.00000000
0.00000000
0.00000000
0.00000000
0.00000000
0.00000000
0.00000000
0.00000000
0.00000000
0.00000000
0.00000000
0.00000000
0.00000000
0.00000000
0.00000000
0.00000000
0.00000000
0.00000000
0.00000000
0.00000000
0.00000000
0.00000000
0.00000000
0.00000000
0.00000000
0.00000000
0.00000000
0.00000000
0.00000000
0.00000000
0.00000000
0.00000000
0.00000000
0.00000000
0.00000000
0.00000000
0.00000000
0.00000000
0.00000000
0.00000000
0.00000000
0.00000000
0.00000000
0.00000000
0.00000000
0.00000001
0.00000001
0.00000001
0.00000002
0.00000003
0.00000004
0.00000006
0.00000008
0.00000012
0.00000018
0.00000026
0.00000038
0.00000055
0.00000080
0.00000115
0.00000164
0.00000233
0.00000330
0.00000467
0.00000657
0.00000921
0.00001286
0.00001788
0.00002477
0.00003419
0.00004700
0.00006438
0.00008783
0.00011938
0.00016164
0.00021804
0.00029302
0.00039231
0.00052329
0.00069541
0.00092077
0.00121470
0.00159665
0.00209117
0.00272909
0.00354907
0.00459934
0.00593994
0.00764538
0.00980785
0.01254118
0.01598567
0.02031403
0.02573869
0.03252105
0.04098301
0.05152192
0.06462971
0.08091796
0.10115071
0.12628685
0.15753332
0.19640508
0.24477578
0.30486358
0.37902192
0.46897788
0.57402802
0.68736068
0.79301972
0.87424157
0.92652636
0.95466539
0.96936229
0.98551575
1.01188431
1.04627524
1.07030855
1.07541236
1.07416461
1.07016942
1.05882459
1.04276992
1.03101800
1.02915485
1.03617304
1.04512158
1.05254305
1.05786357
1.06141721
1.06371318
1.06522021
1.06629847
1.06717233
1.06793124
1.06855360
1.06897162
1.06912441
1.06898942
1.06859186
1.06799523
1.06727049
1.06643783
1.06540359
1.06393635
1.06166836
1.05812148
1.05277166
1.04525433
1.03608653
1.02887300
1.03079794
1.04248718
1.05820673
1.06987169
1.07401131
1.07543258
1.07035625
1.04594572
1.01079570
0.98328851
0.96581063
0.94945694
0.91998534
0.86577010
0.78311298
0.67742503
0.56551141
0.46228510
0.37401788
0.30123112
0.24217088
0.19455169
0.15622037
0.12536000
0.10049848
0.08046050
0.06431003
0.05129945
0.04082892
0.03241488
0.02566599
0.02026457
0.01595229
0.01251883
0.00979304
0.00763567
0.00593366
0.00459534
0.00354657
0.00272756
0.00209026
0.00159614
0.00121443
0.00092064
0.00069537
0.00052329
0.00039233
0.00029305
0.00021808
0.00016167
0.00011940
0.00008785
0.00006439
0.00004702
0.00003420
0.00002478
0.00001789
0.00001286
0.00000921
0.00000657
0.00000467
0.00000331
0.00000233
0.00000164
0.00000115
0.00000080
0.00000055
0.00000038
0.00000026
0.00000018
0.00000012
0.00000008
0.00000006
0.00000004
0.00000003
0.00000002
0.00000001
0.00000001
0.00000001
0.00000000
0.00000000
0.00000000
0.00000000
0.00000000
0.00000000
0.00000000
0.00000000
0.00000000
0.00000000
0.00000000
0.00000000
0.00000000
0.00000000
0.00000000
0.00000000
0.00000000
0.00000000
0.00000000
0.00000000
0.00000000
0.00000000
0.00000000
0.00000000
0.00000000
0.00000000
0.00000000
0.00000000
0.00000000
0.00000000
0.00000000
0.00000000
0.00000000
0.00000000
0.00000000
0.00000000
0.00000000
0.00000000
0.00000000
0.00000000
0.00000000
0.00000000
0.00000000
0.00000000
0.00000000
0.00000000
0.00000000
0.00000000
0.00000000
0.00000000
0.00000000
0.00000000
0.00000000
0.00000000
0.00000000
0.00000000
0.00000000
0.00000000
0.00000000
0.00000000
0.00000000
0.00000000
0.00000000
0.00000000
0.00000000
0.00000000
0.00000000
0.00000000
0.00000000
0.00000000
0.00000000
0.00000000
0.00000000
0.00000000
0.00000000
0.00000000
0.00000000
0.00000000
0.00000000
0.00000000
0.00000000
0.00000000
0.00000000