# vtk DataFile Version 3.0
Concentration output
ASCII
DATASET STRUCTURED_POINTS
DIMENSIONS 298 298 1
ORIGIN 0 0 0
SPACING 0.03 0.03 1.0
POINT_DATA 88804
SCALARS Variable float 1
LOOKUP_TABLE default
0.00000009
0.00000010
0.00000011
0.00000013
0.00000015
0.00000019
0.00000023
0.00000029
0.00000037
0.00000046
0.00000058
0.00000073
0.00000093
0.00000117
0.00000148
0.00000187
0.00000236
0.00000297
0.00000375
0.00000473
0.00000597
0.00000753
0.00000949
0.00001197
0.00001509
0.00001901
0.00002396
0.00003020
0.00003806
0.00004797
0.00006046
0.00007621
0.00009607
0.00012112
0.00015272
0.00019260
0.00024293
0.00030647
0.00038671
0.00048806
0.00061610
0.00077789
0.00098237
0.00124086
0.00156768
0.00198093
0.00250353
0.00316444
0.00400027
0.00505724
0.00639364
0.00808292
0.01021746
0.01291319
0.01631523
0.02060462
0.02600617
0.03279755
0.04131910
0.05198401
0.06528755
0.08181310
0.10223168
0.12728926
0.15777420
0.19445427
0.23797178
0.28868802
0.34647915
0.41050951
0.47905492
0.54949940
0.61863418
0.68332469
0.74124692
0.79133038
0.83363256
0.86882046
0.89776259
0.92129827
0.94015380
0.95497489
0.96637444
0.97495124
0.98127823
0.98584984
0.98909177
0.99133119
0.99282212
0.99376917
0.99431538
0.99458156
0.99465866
0.99462237
0.99453853
0.99447726
0.99448732
0.99460092
0.99483941
0.99521224
0.99570987
0.99632235
0.99704288
0.99788317
0.99887528
1.00004925
1.00135569
1.00265834
1.00382937
1.00473289
1.00535830
1.00570680
1.00581042
1.00571354
1.00545530
1.00508277
1.00460533
1.00402620
1.00331700
1.00250880
1.00162079
1.00070277
0.99994150
0.99950437
0.99955707
0.99968795
0.99977739
1.00010663
1.00154697
1.00449488
1.00849758
1.01305304
1.01791514
1.02302758
1.02755316
1.03017032
1.03149394
1.03256968
1.03342435
1.03407047
1.03452874
1.03483456
1.03502530
1.03513453
1.03519009
1.03521379
1.03522193
1.03522611
1.03523400
1.03525000
1.03527556
1.03530936
1.03534713
1.03538120
1.03539991
1.03538672
1.03531946
1.03516985
1.03490394
1.03448452
1.03387730
1.03305185
1.03198625
1.03065157
1.02814974
1.02314454
1.01779548
1.01273217
1.00809851
1.00421967
1.00156250
1.00049843
1.00034614
1.00026264
0.99998606
0.99963471
0.99986857
1.00054857
1.00143171
1.00233821
1.00315104
1.00385241
1.00447268
1.00498867
1.00541647
1.00569511
1.00580353
1.00571340
1.00539524
1.00480294
1.00390422
1.00277008
1.00146472
1.00015275
0.99895554
0.99792829
0.99705385
0.99631113
0.99567268
0.99514420
0.99474937
0.99448847
0.99435370
0.99433006
0.99437707
0.99443736
0.99445243
0.99436237
0.99408099
0.99351421
0.99253476
0.99099477
0.98868749
0.98534987
0.98063520
0.97412699
0.96530829
0.95360706
0.93841968
0.91911511
0.89503219
0.86545398
0.82952603
0.78638432
0.73539634
0.67661547
0.61125959
0.54177412
0.47134573
0.40315532
0.33972852
0.28268582
0.23277078
0.19003967
0.15408802
0.12425098
0.09975298
0.07980730
0.06367486
0.05069404
0.04029148
0.03198161
0.02536002
0.02009400
0.01591242
0.01259587
0.00996778
0.00788664
0.00623947
0.00493622
0.00390533
0.00309000
0.00244519
0.00193523
0.00153189
0.00121285
0.00096046
0.00076075
0.00060270
0.00047759
0.00037853
0.00030009
0.00023794
0.00018871
0.00014969
0.00011875
0.00009423
0.00007478
0.00005935
0.00004711
0.00003739
0.00002968
0.00002356
0.00001870
0.00001484
0.00001178
0.00000935
0.00000742
0.00000589
0.00000467
0.00000370
0.00000293
0.00000233
0.00000184
0.00000146
0.00000116
0.00000092
0.00000073
0.00000058
0.00000046
0.00000037
0.00000029
0.00000024
0.00000019
0.00000016
0.00000014
0.00000013
0.00000012
0.00000009
0.00000010
0.00000011
0.00000013
0.00000015
0.00000019
0.00000023
0.00000029
0.00000036
0.00000046
0.00000058
0.00000073
0.00000092
0.00000117
0.00000147
0.00000186
0.00000235
0.00000297
0.00000375
0.00000473
0.00000596
0.00000752
0.00000947
0.00001194
0.00001505
0.00001897
0.00002391
0.00003014
0.00003798
0.00004786
0.00006032
0.00007603
0.00009584
0.00012083
0.00015235
0.00019213
0.00024233
0.00030571
0.00038573
0.00048681
0.00061451
0.00077587
0.00097980
0.00123760
0.00156354
0.00197570
0.00249695
0.00315619
0.00398998
0.00504449
0.00637799
0.00806395
0.01019483
0.01288683
0.01628559
0.02057312
0.02597595
0.03277468
0.04131455
0.05201674
0.06538925
0.08203542
0.10265681
0.12804476
0.15905239
0.19653482
0.24124232
0.29365036
0.35371776
0.42059388
0.49234444
0.56588403
0.63734048
0.70303079
0.76051803
0.80903549
0.84917740
0.88208884
0.90890535
0.93056590
0.94781297
0.96123387
0.97138170
0.97888798
0.98432737
0.98818621
0.99088659
0.99270301
0.99387386
0.99457614
0.99494200
0.99506134
0.99503316
0.99490963
0.99474857
0.99461122
0.99457890
0.99465966
0.99486715
0.99523325
0.99572289
0.99632001
0.99701221
0.99779962
0.99875196
0.99995422
1.00135339
1.00276687
1.00407384
1.00496559
1.00560408
1.00593255
1.00595411
1.00589124
1.00560382
1.00514770
1.00469223
1.00415149
1.00345633
1.00263361
1.00168725
1.00063769
0.99971209
0.99927085
0.99958466
0.99976053
0.99964469
0.99930616
1.00051579
1.00376569
1.00814578
1.01288491
1.01782281
1.02276962
1.02708006
1.02981435
1.03155694
1.03275115
1.03363291
1.03426306
1.03468856
1.03495804
1.03511498
1.03519550
1.03522807
1.03523425
1.03522970
1.03522536
1.03522834
1.03524268
1.03526971
1.03530827
1.03535445
1.03540118
1.03543749
1.03544743
1.03540903
1.03529313
1.03506271
1.03467340
1.03407554
1.03321571
1.03202211
1.03028649
1.02786379
1.02278756
1.01752589
1.01245610
1.00762190
1.00331329
1.00045924
0.99977824
1.00013778
1.00047693
0.99989450
0.99940017
0.99959178
1.00042181
1.00147083
1.00244252
1.00325794
1.00398372
1.00454975
1.00509144
1.00556245
1.00589317
1.00598533
1.00588438
1.00561700
1.00506011
1.00413363
1.00287930
1.00146602
1.00004257
0.99882549
0.99784267
0.99700760
0.99631934
0.99569785
0.99516993
0.99478470
0.99454222
0.99444038
0.99446237
0.99458129
0.99471802
0.99483043
0.99485229
0.99471620
0.99433803
0.99359463
0.99239204
0.99052387
0.98774959
0.98376605
0.97816143
0.97043100
0.96000024
0.94625958
0.92859996
0.90640566
0.87897136
0.84533445
0.80429579
0.75478049
0.69628857
0.62977197
0.55783573
0.48426430
0.41288794
0.34667324
0.28742180
0.23587764
0.19200710
0.15529077
0.12495768
0.10014740
0.08001079
0.06376535
0.05072034
0.04028343
0.03195700
0.02532907
0.02006235
0.01588292
0.01256979
0.00994547
0.00786799
0.00622411
0.00492372
0.00389526
0.00308193
0.00243875
0.00193012
0.00152785
0.00120966
0.00095794
0.00075877
0.00060114
0.00047637
0.00037758
0.00029934
0.00023736
0.00018825
0.00014933
0.00011847
0.00009401
0.00007460
0.00005921
0.00004700
0.00003731
0.00002962
0.00002351
0.00001866
0.00001481
0.00001176
0.00000933
0.00000740
0.00000587
0.00000466
0.00000369
0.00000293
0.00000232
0.00000184
0.00000146
0.00000115
0.00000091
0.00000073
0.00000058
0.00000046
0.00000036
0.00000029
0.00000024
0.00000019
0.00000016
0.00000014
0.00000013
0.00000012
0.00000009
0.00000010
0.00000011
0.00000013
0.00000015
0.00000019
0.00000023
0.00000029
0.00000036
0.00000046
0.00000058
0.00000073
0.00000092
0.00000116
0.00000147
0.00000186
0.00000234
0.00000296
0.00000373
0.00000471
0.00000594
0.00000748
0.00000944
0.00001189
0.00001499
0.00001889
0.00002381
0.00003000
0.00003781
0.00004765
0.00006005
0.00007568
0.00009539
0.00012025
0.00015161
0.00019119
0.00024113
0.00030418
0.00038378
0.00048433
0.00061134
0.00077183
0.00097467
0.00123108
0.00155528
0.00196526
0.00248378
0.00313966
0.00396934
0.00501888
0.00634648
0.00802561
0.01014891
0.01283300
0.01622446
0.02050709
0.02591062
0.03272113
0.04129309
0.05206282
0.06556268
0.08243454
0.10343957
0.12945894
0.16147657
0.20052852
0.24759664
0.30341428
0.36815068
0.44096564
0.51949933
0.59958746
0.67580951
0.74327789
0.79948794
0.84448738
0.88006763
0.90823133
0.93074519
0.94869479
0.96277823
0.97341696
0.98109113
0.98648940
0.99016369
0.99262845
0.99431822
0.99532507
0.99591778
0.99615707
0.99621077
0.99600443
0.99579742
0.99553491
0.99524569
0.99497903
0.99481772
0.99483116
0.99497566
0.99532688
0.99580673
0.99639187
0.99701485
0.99768688
0.99852783
0.99977299
1.00133712
1.00304258
1.00440347
1.00537710
1.00607320
1.00627686
1.00627447
1.00627240
1.00591792
1.00537879
1.00493365
1.00443149
1.00379479
1.00304511
1.00213032
1.00102837
0.99972385
0.99918508
0.99994283
1.00042985
1.00001910
0.99903900
0.99941651
1.00333623
1.00805962
1.01314677
1.01804519
1.02285527
1.02720956
1.02999173
1.03193238
1.03322482
1.03410088
1.03466984
1.03501547
1.03520515
1.03529127
1.03531319
1.03529969
1.03527117
1.03524175
1.03522081
1.03521425
1.03522535
1.03525522
1.03530297
1.03536553
1.03543710
1.03550827
1.03556470
1.03558544
1.03554074
1.03538961
1.03507733
1.03453274
1.03366415
1.03234228
1.03034881
1.02738396
1.02273021
1.01735209
1.01239462
1.00734400
1.00257964
0.99939817
0.99947143
1.00079876
1.00137139
1.00048725
0.99937582
0.99944072
1.00058878
1.00186610
1.00274553
1.00358495
1.00437223
1.00488389
1.00537259
1.00580637
1.00630687
1.00637501
1.00629657
1.00612034
1.00559704
1.00463297
1.00310577
1.00153782
0.99987252
0.99859223
0.99775191
0.99698449
0.99640926
0.99580565
0.99526621
0.99491974
0.99468219
0.99465176
0.99477051
0.99505147
0.99527671
0.99560800
0.99586962
0.99599138
0.99595441
0.99565772
0.99511188
0.99403397
0.99233773
0.98977097
0.98595214
0.98040286
0.97246811
0.96157563
0.94714838
0.92871742
0.90560908
0.87680714
0.84024771
0.79405123
0.73652803
0.66784397
0.59084257
0.51062201
0.43251631
0.36049602
0.29672513
0.24190428
0.19577771
0.15756815
0.12627795
0.10087159
0.08037434
0.06391782
0.05075453
0.04025562
0.03190037
0.02526255
0.01999617
0.01582217
0.01251657
0.00990022
0.00783030
0.00619319
0.00489862
0.00387505
0.00306576
0.00242588
0.00191991
0.00151977
0.00120329
0.00095293
0.00075483
0.00059805
0.00047394
0.00037567
0.00029784
0.00023619
0.00018733
0.00014861
0.00011791
0.00009357
0.00007426
0.00005894
0.00004679
0.00003714
0.00002949
0.00002341
0.00001858
0.00001475
0.00001171
0.00000929
0.00000737
0.00000585
0.00000464
0.00000368
0.00000292
0.00000231
0.00000183
0.00000145
0.00000115
0.00000091
0.00000072
0.00000057
0.00000046
0.00000036
0.00000029
0.00000024
0.00000019
0.00000016
0.00000014
0.00000013
0.00000012
0.00000009
0.00000010
0.00000011
0.00000013
0.00000015
0.00000019
0.00000023
0.00000029
0.00000036
0.00000045
0.00000057
0.00000072
0.00000092
0.00000116
0.00000146
0.00000184
0.00000233
0.00000294
0.00000371
0.00000468
0.00000590
0.00000744
0.00000938
0.00001182
0.00001490
0.00001877
0.00002365
0.00002980
0.00003756
0.00004732
0.00005963
0.00007515
0.00009472
0.00011939
0.00015052
0.00018979
0.00023934
0.00030190
0.00038087
0.00048061
0.00060660
0.00076580
0.00096699
0.00122133
0.00154291
0.00194960
0.00246402
0.00311482
0.00393824
0.00498017
0.00629868
0.00796717
0.01007842
0.01274957
0.01612835
0.02040083
0.02580093
0.03262206
0.04123112
0.05208508
0.06574997
0.08292170
0.10444653
0.13133693
0.16477373
0.20607649
0.25660944
0.31756532
0.38954543
0.47184083
0.56142062
0.65215613
0.73549312
0.80489451
0.85810868
0.89718393
0.92552306
0.94635357
0.96231667
0.97475240
0.98424438
0.99092227
0.99478305
0.99712262
0.99837456
0.99905886
0.99926244
0.99915223
0.99903415
0.99867347
0.99831209
0.99761366
0.99718806
0.99682760
0.99639220
0.99581126
0.99552019
0.99539973
0.99546305
0.99577323
0.99624862
0.99680548
0.99737410
0.99781559
0.99864105
0.99967488
1.00156854
1.00347593
1.00502941
1.00609412
1.00654319
1.00688054
1.00687914
1.00653612
1.00625892
1.00565825
1.00520041
1.00484343
1.00441046
1.00380895
1.00317490
1.00260498
1.00221728
1.00233127
1.00306077
1.00365450
1.00372305
1.00356401
1.00430001
1.00689653
1.01081147
1.01531601
1.01996458
1.02438062
1.02817921
1.03096030
1.03288283
1.03413144
1.03489495
1.03531858
1.03551621
1.03557209
1.03554578
1.03547797
1.03539569
1.03531639
1.03525107
1.03520641
1.03518631
1.03519281
1.03522662
1.03528734
1.03537322
1.03548060
1.03560287
1.03572890
1.03584066
1.03591000
1.03589412
1.03573001
1.03532823
1.03456743
1.03328831
1.03129090
1.02835459
1.02429094
1.01957377
1.01470282
1.01023920
1.00656824
1.00436038
1.00389013
1.00425985
1.00417317
1.00344099
1.00249814
1.00200761
1.00249287
1.00306697
1.00359848
1.00418534
1.00491670
1.00532964
1.00575364
1.00608858
1.00659437
1.00685724
1.00684051
1.00654537
1.00611913
1.00513411
1.00377388
1.00189800
0.99976878
0.99869735
0.99799662
0.99727635
0.99672999
0.99629153
0.99574948
0.99538589
0.99521607
0.99538732
0.99567220
0.99611171
0.99642370
0.99716426
0.99748332
0.99811676
0.99849357
0.99876719
0.99904684
0.99912910
0.99888278
0.99835328
0.99684070
0.99447897
0.99031368
0.98354980
0.97389709
0.96109367
0.94452781
0.92299077
0.89377349
0.85328395
0.79815411
0.72698746
0.64230419
0.55124726
0.46218876
0.38092801
0.31017063
0.25042882
0.20100138
0.16065635
0.12802467
0.10179806
0.08081340
0.06407727
0.05076137
0.04018569
0.03179771
0.02515174
0.01989010
0.01572689
0.01243422
0.00983086
0.00777291
0.00614631
0.00486071
0.00384460
0.00304145
0.00240656
0.00190460
0.00150769
0.00119376
0.00094543
0.00074893
0.00059342
0.00047031
0.00037282
0.00029561
0.00023444
0.00018596
0.00014754
0.00011707
0.00009291
0.00007374
0.00005854
0.00004647
0.00003689
0.00002929
0.00002326
0.00001846
0.00001466
0.00001163
0.00000923
0.00000733
0.00000581
0.00000461
0.00000366
0.00000290
0.00000230
0.00000182
0.00000144
0.00000114
0.00000091
0.00000072
0.00000057
0.00000045
0.00000036
0.00000029
0.00000023
0.00000019
0.00000016
0.00000014
0.00000012
0.00000012
0.00000009
0.00000010
0.00000011
0.00000013
0.00000015
0.00000018
0.00000023
0.00000029
0.00000036
0.00000045
0.00000057
0.00000072
0.00000091
0.00000115
0.00000145
0.00000183
0.00000231
0.00000292
0.00000368
0.00000464
0.00000585
0.00000738
0.00000930
0.00001172
0.00001477
0.00001861
0.00002345
0.00002954
0.00003722
0.00004690
0.00005909
0.00007446
0.00009383
0.00011826
0.00014907
0.00018794
0.00023698
0.00029887
0.00037702
0.00047569
0.00060033
0.00075780
0.00095681
0.00120838
0.00152646
0.00192876
0.00243767
0.00308160
0.00389654
0.00492810
0.00623406
0.00788768
0.00998172
0.01263373
0.01599255
0.02024661
0.02563434
0.03245722
0.04109620
0.05203193
0.06586985
0.08337023
0.10548321
0.13338636
0.16851766
0.21258590
0.26751564
0.33523602
0.41713389
0.51292645
0.61858784
0.72419984
0.81560086
0.88474205
0.93214890
0.96264958
0.98075226
0.99209554
0.99977735
1.00548963
1.00939107
1.01092395
1.01072541
1.00966062
1.00848430
1.00706525
1.00573019
1.00487892
1.00377014
1.00302549
1.00201096
1.00113313
1.00031991
0.99955253
0.99892702
0.99841015
0.99790400
0.99765783
0.99760670
0.99764706
0.99806711
0.99848376
0.99901206
0.99967487
1.00051737
1.00155681
1.00296835
1.00447924
1.00558172
1.00636975
1.00681218
1.00705275
1.00699033
1.00690526
1.00660848
1.00625257
1.00595093
1.00568003
1.00543783
1.00520930
1.00502765
1.00500202
1.00518729
1.00567144
1.00651791
1.00730728
1.00791598
1.00856470
1.00978073
1.01207464
1.01526422
1.01900885
1.02301090
1.02686008
1.03024245
1.03280774
1.03453752
1.03556071
1.03606268
1.03622448
1.03618633
1.03604474
1.03586123
1.03567288
1.03550103
1.03535721
1.03524717
1.03517341
1.03513682
1.03513767
1.03517614
1.03525247
1.03536682
1.03551871
1.03570593
1.03592280
1.03615741
1.03638738
1.03657329
1.03664945
1.03651299
1.03601641
1.03496928
1.03318007
1.03051277
1.02701285
1.02296636
1.01882525
1.01508588
1.01196556
1.00991176
1.00890028
1.00835699
1.00775298
1.00688373
1.00592624
1.00522720
1.00492900
1.00497450
1.00512728
1.00534159
1.00561921
1.00590300
1.00625582
1.00659298
1.00688781
1.00709485
1.00708129
1.00696735
1.00650345
1.00572369
1.00455818
1.00313203
1.00162468
1.00056082
0.99970040
0.99909684
0.99858617
0.99819744
0.99767837
0.99759123
0.99743450
0.99767571
0.99808653
0.99888738
0.99935979
1.00019839
1.00096061
1.00187285
1.00271386
1.00365470
1.00461868
1.00568006
1.00711040
1.00851689
1.00963000
1.01073720
1.01068509
1.00901828
1.00509568
0.99922601
0.99103093
0.97919885
0.96008711
0.92813531
0.87834592
0.80645514
0.71286499
0.60652777
0.50154012
0.40717914
0.32689253
0.26070281
0.20710461
0.16414605
0.12991840
0.10274152
0.08120758
0.06416660
0.05069200
0.04004296
0.03162988
0.02498478
0.01973686
0.01559265
0.01232010
0.00973582
0.00769492
0.00608300
0.00480973
0.00380382
0.00300898
0.00238080
0.00188423
0.00149161
0.00118111
0.00093548
0.00074112
0.00058729
0.00046550
0.00036906
0.00029266
0.00023213
0.00018415
0.00014612
0.00011596
0.00009204
0.00007306
0.00005800
0.00004605
0.00003657
0.00002903
0.00002305
0.00001831
0.00001453
0.00001154
0.00000916
0.00000727
0.00000577
0.00000458
0.00000363
0.00000288
0.00000228
0.00000181
0.00000143
0.00000114
0.00000090
0.00000071
0.00000057
0.00000045
0.00000036
0.00000029
0.00000023
0.00000019
0.00000016
0.00000014
0.00000012
0.00000012
0.00000009
0.00000010
0.00000011
0.00000013
0.00000015
0.00000018
0.00000023
0.00000028
0.00000036
0.00000045
0.00000056
0.00000071
0.00000090
0.00000114
0.00000144
0.00000181
0.00000229
0.00000289
0.00000364
0.00000459
0.00000579
0.00000730
0.00000920
0.00001160
0.00001461
0.00001841
0.00002319
0.00002922
0.00003681
0.00004637
0.00005841
0.00007359
0.00009273
0.00011685
0.00014727
0.00018564
0.00023405
0.00029513
0.00037224
0.00046959
0.00059255
0.00074788
0.00094416
0.00119227
0.00150599
0.00190277
0.00240474
0.00304000
0.00384414
0.00486238
0.00615207
0.00778608
0.00985696
0.01248232
0.01581177
0.02003566
0.02539643
0.03220317
0.04085043
0.05184251
0.06582498
0.08362544
0.10630571
0.13522698
0.17212600
0.21918886
0.27907782
0.35478768
0.44899359
0.56227327
0.68883102
0.81122263
0.90533697
0.96755180
1.00383396
1.02084704
1.02487159
1.02465254
1.02433762
1.02423125
1.02408362
1.02295623
1.02119535
1.01893459
1.01675355
1.01461297
1.01263963
1.01091501
1.00938230
1.00799053
1.00666593
1.00539042
1.00432769
1.00335701
1.00249789
1.00180916
1.00125455
1.00088283
1.00068648
1.00067490
1.00083463
1.00115110
1.00150041
1.00202907
1.00270537
1.00357956
1.00457055
1.00558435
1.00639700
1.00697226
1.00730064
1.00743732
1.00739595
1.00724074
1.00701273
1.00676925
1.00657733
1.00644755
1.00644048
1.00654832
1.00682087
1.00729195
1.00799719
1.00892984
1.01002232
1.01110375
1.01211608
1.01320977
1.01469810
1.01684050
1.01965315
1.02296546
1.02653925
1.03008120
1.03320226
1.03554222
1.03695113
1.03756450
1.03762407
1.03737774
1.03699973
1.03659183
1.03620748
1.03587170
1.03559412
1.03537639
1.03521640
1.03511076
1.03505632
1.03505099
1.03509421
1.03518711
1.03533235
1.03553373
1.03579524
1.03611945
1.03650485
1.03694110
1.03740085
1.03782547
1.03810616
1.03806212
1.03743606
1.03598462
1.03357738
1.03036131
1.02669483
1.02301659
1.01967542
1.01692018
1.01488779
1.01352424
1.01250873
1.01151533
1.01039680
1.00922740
1.00818223
1.00739538
1.00687495
1.00657025
1.00645114
1.00647412
1.00659868
1.00679943
1.00706068
1.00728763
1.00748089
1.00753928
1.00744399
1.00709923
1.00654013
1.00572308
1.00471250
1.00367159
1.00280240
1.00209371
1.00159788
1.00119721
1.00083584
1.00059182
1.00059455
1.00076823
1.00113734
1.00165454
1.00242558
1.00329892
1.00424422
1.00539614
1.00661019
1.00792466
1.00936900
1.01094496
1.01275363
1.01475222
1.01683538
1.01918100
1.02137562
1.02316468
1.02420391
1.02449220
1.02455338
1.02485866
1.02493938
1.01990138
1.00097215
0.96186315
0.89653972
0.79837624
0.67432726
0.54856420
0.43731518
0.34529299
0.27153359
0.21325610
0.16748165
0.13159752
0.10347049
0.08141031
0.06409370
0.05048885
0.03979165
0.03137477
0.02474811
0.01952818
0.01541448
0.01217126
0.00961339
0.00759536
0.00600273
0.00474544
0.00375258
0.00296831
0.00234863
0.00185884
0.00147161
0.00116538
0.00092312
0.00073142
0.00057969
0.00045954
0.00036439
0.00028900
0.00022926
0.00018191
0.00014436
0.00011459
0.00009096
0.00007222
0.00005734
0.00004554
0.00003616
0.00002872
0.00002281
0.00001811
0.00001438
0.00001142
0.00000906
0.00000719
0.00000571
0.00000453
0.00000359
0.00000285
0.00000226
0.00000179
0.00000142
0.00000112
0.00000089
0.00000071
0.00000056
0.00000045
0.00000036
0.00000029
0.00000023
0.00000019
0.00000016
0.00000014
0.00000012
0.00000012
0.00000009
0.00000010
0.00000011
0.00000012
0.00000015
0.00000018
0.00000022
0.00000028
0.00000035
0.00000044
0.00000056
0.00000070
0.00000089
0.00000112
0.00000142
0.00000179
0.00000226
0.00000285
0.00000360
0.00000454
0.00000572
0.00000721
0.00000909
0.00001145
0.00001443
0.00001818
0.00002289
0.00002883
0.00003632
0.00004574
0.00005761
0.00007257
0.00009143
0.00011519
0.00014515
0.00018292
0.00023058
0.00029070
0.00036657
0.00046235
0.00058330
0.00073608
0.00092911
0.00117309
0.00148156
0.00187171
0.00236531
0.00299003
0.00378099
0.00478281
0.00605223
0.00766145
0.00970240
0.01229230
0.01558079
0.01975921
0.02507270
0.03183610
0.04045495
0.05145352
0.06551253
0.08352033
0.10664279
0.13641858
0.17488606
0.22474231
0.28949498
0.37346470
0.48110569
0.61414567
0.76324328
0.89487167
0.97872883
1.02586098
1.04607610
1.05072410
1.04826910
1.04410043
1.04040076
1.03753087
1.03505258
1.03250806
1.02976791
1.02693499
1.02415068
1.02150052
1.01904799
1.01682493
1.01480763
1.01297872
1.01131447
1.00980943
1.00846848
1.00727644
1.00623940
1.00538414
1.00469543
1.00419015
1.00386398
1.00372044
1.00372825
1.00386278
1.00409403
1.00445234
1.00492960
1.00552257
1.00618296
1.00683052
1.00736545
1.00773851
1.00792895
1.00795694
1.00784855
1.00765192
1.00742440
1.00721867
1.00709521
1.00710446
1.00729913
1.00771734
1.00839461
1.00935305
1.01057889
1.01200464
1.01350140
1.01491743
1.01619554
1.01746743
1.01899944
1.02102181
1.02362155
1.02674193
1.03022118
1.03379198
1.03697283
1.03919090
1.04020338
1.04018554
1.03955709
1.03872812
1.03789705
1.03715818
1.03653829
1.03603772
1.03564671
1.03535251
1.03514257
1.03500597
1.03493447
1.03492312
1.03497044
1.03507859
1.03525329
1.03550366
1.03584161
1.03628087
1.03683501
1.03751378
1.03831474
1.03920569
1.04009265
1.04075434
1.04076598
1.03976528
1.03747917
1.03420095
1.03052707
1.02695207
1.02378980
1.02120038
1.01923010
1.01776906
1.01655929
1.01531803
1.01390152
1.01236169
1.01086460
1.00956710
1.00855002
1.00783196
1.00739242
1.00718993
1.00717724
1.00730254
1.00751608
1.00775795
1.00797356
1.00809513
1.00807940
1.00789069
1.00752461
1.00698781
1.00632918
1.00563966
1.00503031
1.00452820
1.00414747
1.00388715
1.00372270
1.00370137
1.00383666
1.00414168
1.00463446
1.00531352
1.00620390
1.00724447
1.00843815
1.00980722
1.01133022
1.01302018
1.01487724
1.01692679
1.01918701
1.02167461
1.02436177
1.02720344
1.03008150
1.03283862
1.03539873
1.03793763
1.04088016
1.04458170
1.04873205
1.05085252
1.04507120
1.02221822
0.97128535
0.88249378
0.74625010
0.59782055
0.46749438
0.36274159
0.28120472
0.21837107
0.16998907
0.13264583
0.10372875
0.08126389
0.06376150
0.05009224
0.03939510
0.03100994
0.02442808
0.01925585
0.01518750
0.01198485
0.00946197
0.00747338
0.00590508
0.00466766
0.00369087
0.00291950
0.00231011
0.00182851
0.00144776
0.00114665
0.00090843
0.00071990
0.00057066
0.00045247
0.00035885
0.00028467
0.00022587
0.00017925
0.00014228
0.00011296
0.00008969
0.00007122
0.00005656
0.00004492
0.00003568
0.00002834
0.00002251
0.00001788
0.00001420
0.00001128
0.00000895
0.00000711
0.00000564
0.00000448
0.00000355
0.00000282
0.00000223
0.00000177
0.00000140
0.00000111
0.00000088
0.00000070
0.00000055
0.00000044
0.00000035
0.00000028
0.00000023
0.00000019
0.00000016
0.00000014
0.00000012
0.00000011
0.00000009
0.00000009
0.00000011
0.00000012
0.00000015
0.00000018
0.00000022
0.00000028
0.00000035
0.00000044
0.00000055
0.00000070
0.00000088
0.00000111
0.00000140
0.00000177
0.00000223
0.00000281
0.00000355
0.00000448
0.00000564
0.00000711
0.00000896
0.00001129
0.00001422
0.00001790
0.00002255
0.00002839
0.00003575
0.00004502
0.00005670
0.00007140
0.00008993
0.00011327
0.00014270
0.00017980
0.00022658
0.00028559
0.00036005
0.00045402
0.00057265
0.00072247
0.00091174
0.00115093
0.00145330
0.00183569
0.00231948
0.00293179
0.00370712
0.00468932
0.00593426
0.00751310
0.00951669
0.01206115
0.01529519
0.01940971
0.02465045
0.03133486
0.03987478
0.05080730
0.06483732
0.08289711
0.10623085
0.13651613
0.17603789
0.22793152
0.29647602
0.38729731
0.50674743
0.65749046
0.82404504
0.95199850
1.02202543
1.05532550
1.06618270
1.06629426
1.06224524
1.05716753
1.05239959
1.04821368
1.04445410
1.04089403
1.03741391
1.03401399
1.03075230
1.02767306
1.02481231
1.02218491
1.01978863
1.01762142
1.01566929
1.01391802
1.01236171
1.01098442
1.00979198
1.00878666
1.00797083
1.00734317
1.00690137
1.00662983
1.00649980
1.00649366
1.00658521
1.00677217
1.00704814
1.00739481
1.00777879
1.00814747
1.00844029
1.00861409
1.00864792
1.00854713
1.00833764
1.00806352
1.00778348
1.00756093
1.00746596
1.00756699
1.00793133
1.00861834
1.00967658
1.01112675
1.01292740
1.01494428
1.01698099
1.01877246
1.02019686
1.02139989
1.02277835
1.02462384
1.02708249
1.03017624
1.03382808
1.03779679
1.04152719
1.04379499
1.04428232
1.04339410
1.04177835
1.04015828
1.03877183
1.03765882
1.03679002
1.03612437
1.03562504
1.03526121
1.03500821
1.03484629
1.03476133
1.03474503
1.03479488
1.03491416
1.03511203
1.03540380
1.03581017
1.03635858
1.03708138
1.03801658
1.03920310
1.04066704
1.04238138
1.04408504
1.04501312
1.04439414
1.04217617
1.03839932
1.03426976
1.03049599
1.02732463
1.02484057
1.02301277
1.02168262
1.02054124
1.01918428
1.01742947
1.01537493
1.01329563
1.01142300
1.00990822
1.00880080
1.00808278
1.00770284
1.00759676
1.00769558
1.00792928
1.00822608
1.00851700
1.00873953
1.00884688
1.00881192
1.00863086
1.00832356
1.00793289
1.00752154
1.00714966
1.00685301
1.00664496
1.00653338
1.00652558
1.00664067
1.00690133
1.00733143
1.00794953
1.00876476
1.00978166
1.01099104
1.01238480
1.01396824
1.01574585
1.01772846
1.01992344
1.02235124
1.02501584
1.02791803
1.03104305
1.03435772
1.03779763
1.04130824
1.04490946
1.04871567
1.05295797
1.05775890
1.06280042
1.06660449
1.06563301
1.05285720
1.01593717
0.94124888
0.80574649
0.63885100
0.49135375
0.37549085
0.28757113
0.22121684
0.17095432
0.13264546
0.10326849
0.08061987
0.06308044
0.04944789
0.03882042
0.03051553
0.02401278
0.01891281
0.01490759
0.01175856
0.00928031
0.00732835
0.00578980
0.00457633
0.00361872
0.00286263
0.00226536
0.00179335
0.00142017
0.00112500
0.00089147
0.00070662
0.00056025
0.00044433
0.00035248
0.00027968
0.00022196
0.00017620
0.00013989
0.00011108
0.00008822
0.00007007
0.00005566
0.00004422
0.00003513
0.00002791
0.00002217
0.00001761
0.00001399
0.00001111
0.00000882
0.00000701
0.00000556
0.00000441
0.00000350
0.00000278
0.00000220
0.00000175
0.00000138
0.00000110
0.00000087
0.00000069
0.00000055
0.00000044
0.00000035
0.00000028
0.00000023
0.00000018
0.00000015
0.00000013
0.00000012
0.00000011
0.00000009
0.00000009
0.00000010
0.00000012
0.00000014
0.00000018
0.00000022
0.00000027
0.00000034
0.00000043
0.00000054
0.00000069
0.00000087
0.00000109
0.00000138
0.00000174
0.00000220
0.00000277
0.00000349
0.00000441
0.00000555
0.00000700
0.00000881
0.00001110
0.00001398
0.00001760
0.00002216
0.00002790
0.00003512
0.00004421
0.00005566
0.00007008
0.00008824
0.00011112
0.00013995
0.00017629
0.00022209
0.00027985
0.00035271
0.00044464
0.00056066
0.00070714
0.00089215
0.00112590
0.00142134
0.00179490
0.00226744
0.00286548
0.00362272
0.00458205
0.00579815
0.00734078
0.00929912
0.01178735
0.01495205
0.01898187
0.02412046
0.03068378
0.03908362
0.04985992
0.06372588
0.08163203
0.10485876
0.13515209
0.17492444
0.22754626
0.29773604
0.39188460
0.51747821
0.67792498
0.85283234
0.97516467
1.03840404
1.06698515
1.07591887
1.07582819
1.07204876
1.06705505
1.06194035
1.05707396
1.05251428
1.04821078
1.04411203
1.04020628
1.03650927
1.03304250
1.02982364
1.02686321
1.02416575
1.02173121
1.01954962
1.01760442
1.01587836
1.01435637
1.01303374
1.01191063
1.01098823
1.01026327
1.00972493
1.00935148
1.00911378
1.00898414
1.00893779
1.00896076
1.00904433
1.00917651
1.00933395
1.00947901
1.00956719
1.00955937
1.00943137
1.00918143
1.00883234
1.00843042
1.00804080
1.00774081
1.00761450
1.00774787
1.00822682
1.00913453
1.01054836
1.01251764
1.01500087
1.01774795
1.02052257
1.02279840
1.02423759
1.02504568
1.02601596
1.02756827
1.02988076
1.03302264
1.03702057
1.04174557
1.04622413
1.04811348
1.04820868
1.04680245
1.04396084
1.04141864
1.03945173
1.03797846
1.03688513
1.03607870
1.03549308
1.03507748
1.03479656
1.03462050
1.03452888
1.03450986
1.03455974
1.03468298
1.03489224
1.03520946
1.03566355
1.03629756
1.03716242
1.03832845
1.03989009
1.04196944
1.04465919
1.04769734
1.04924249
1.04891089
1.04712912
1.04248666
1.03755574
1.03339862
1.03014173
1.02777367
1.02621798
1.02528772
1.02454320
1.02322494
1.02101728
1.01828753
1.01541480
1.01286661
1.01082645
1.00935883
1.00841832
1.00792445
1.00779004
1.00792670
1.00824568
1.00865877
1.00908261
1.00944628
1.00969970
1.00981852
1.00980588
1.00968854
1.00950949
1.00931768
1.00915534
1.00904803
1.00900663
1.00903839
1.00915476
1.00937785
1.00973752
1.01026400
1.01098225
1.01190674
1.01304257
1.01438721
1.01593748
1.01769783
1.01967928
1.02189749
1.02436642
1.02709868
1.03009525
1.03335357
1.03686369
1.04060727
1.04455715
1.04869650
1.05303537
1.05762948
1.06252302
1.06763413
1.07255860
1.07608393
1.07550239
1.06480727
1.03295564
0.96501555
0.83383932
0.65769469
0.50097102
0.37946036
0.28850718
0.22067147
0.16976569
0.13125294
0.10189202
0.07936228
0.06198160
0.04851461
0.03804298
0.02987690
0.02349362
0.01849412
0.01457205
0.01149098
0.00906778
0.00716007
0.00565691
0.00447162
0.00353635
0.00279791
0.00221458
0.00175353
0.00138897
0.00110057
0.00087234
0.00069165
0.00054854
0.00043516
0.00034531
0.00027407
0.00021758
0.00017276
0.00013720
0.00010898
0.00008657
0.00006878
0.00005465
0.00004343
0.00003451
0.00002742
0.00002179
0.00001731
0.00001375
0.00001093
0.00000868
0.00000689
0.00000547
0.00000434
0.00000345
0.00000274
0.00000217
0.00000172
0.00000136
0.00000108
0.00000086
0.00000068
0.00000054
0.00000043
0.00000034
0.00000027
0.00000022
0.00000018
0.00000015
0.00000013
0.00000012
0.00000011
0.00000009
0.00000009
0.00000010
0.00000012
0.00000014
0.00000017
0.00000021
0.00000027
0.00000034
0.00000042
0.00000053
0.00000067
0.00000085
0.00000107
0.00000136
0.00000171
0.00000216
0.00000272
0.00000343
0.00000433
0.00000545
0.00000687
0.00000865
0.00001089
0.00001371
0.00001726
0.00002173