# vtk DataFile Version 3.0
Concentration output
ASCII
DATASET STRUCTURED_POINTS
DIMENSIONS 298 298 1
ORIGIN 0 0 0
SPACING 0.03 0.03 1.0
POINT_DATA 88804
SCALARS Variable float 1
LOOKUP_TABLE default
0.01262125
0.01330729
0.01471401
0.01691199
0.02001026
0.02415997
0.02955907
0.03645754
0.04516270
0.05604354
0.06953258
0.08612295
0.10635752
0.13080593
0.16002473
0.19449597
0.23454168
0.28021740
0.33119724
0.38667815
0.44534479
0.50544530
0.56499753
0.62209856
0.67524415
0.72349859
0.76647898
0.80421723
0.83700222
0.86523972
0.88936564
0.90980662
0.92695382
0.94117902
0.95284127
0.96229198
0.96986690
0.97587965
0.98061090
0.98430538
0.98716611
0.98936346
0.99103276
0.99228157
0.99319649
0.99384602
0.99428464
0.99455753
0.99469793
0.99473297
0.99468556
0.99457571
0.99441766
0.99422451
0.99400975
0.99378261
0.99355201
0.99333019
0.99312795
0.99295611
0.99282789
0.99275624
0.99275275
0.99282638
0.99298681
0.99324314
0.99359785
0.99404712
0.99458580
0.99520476
0.99589535
0.99665038
0.99747029
0.99836279
0.99934046
1.00041367
1.00156834
1.00275244
1.00390524
1.00495801
1.00587225
1.00662747
1.00722384
1.00766824
1.00797525
1.00815927
1.00824352
1.00824407
1.00817124
1.00803898
1.00785989
1.00764374
1.00739151
1.00710544
1.00679370
1.00645415
1.00608234
1.00567440
1.00523037
1.00475040
1.00423269
1.00368059
1.00309093
1.00248621
1.00189213
1.00137209
1.00100795
1.00088604
1.00101885
1.00133125
1.00173727
1.00217140
1.00257612
1.00293084
1.00324524
1.00354788
1.00385700
1.00418724
1.00452858
1.00492317
1.00537528
1.00588637
1.00649025
1.00718618
1.00799244
1.00890051
1.00993932
1.01113900
1.01254247
1.01419543
1.01608351
1.01816060
1.02033453
1.02248535
1.02434393
1.02535550
1.02615808
1.02689574
1.02762401
1.02834594
1.02904346
1.02970040
1.03030325
1.03084126
1.03130609
1.03169158
1.03199344
1.03220884
1.03233616
1.03237458
1.03232397
1.03218476
1.03195802
1.03164566
1.03125070
1.03077757
1.03023246
1.02962364
1.02896190
1.02826114
1.02753790
1.02681507
1.02608926
1.02533269
1.02419346
1.02238455
1.02034472
1.01824048
1.01619785
1.01428792
1.01257223
1.01107470
1.00977421
1.00864255
1.00767544
1.00684473
1.00614307
1.00554969
1.00505104
1.00463686
1.00428950
1.00397909
1.00371534
1.00345848
1.00318773
1.00288891
1.00255825
1.00218617
1.00177519
1.00137337
1.00101920
1.00086544
1.00096530
1.00130469
1.00181441
1.00239982
1.00299902
1.00358521
1.00413744
1.00465088
1.00512353
1.00555445
1.00594950
1.00630973
1.00664077
1.00694226
1.00721377
1.00745835
1.00767391
1.00785541
1.00799343
1.00807189
1.00808304
1.00800998
1.00783516
1.00753976
1.00711235
1.00653611
1.00580179
1.00491704
1.00389316
1.00277091
1.00160188
1.00045466
0.99937544
0.99838417
0.99747242
0.99662989
0.99585174
0.99513809
0.99449596
0.99393384
0.99346295
0.99309150
0.99282358
0.99265551
0.99257900
0.99258516
0.99266360
0.99280058
0.99298158
0.99319397
0.99342473
0.99366092
0.99389248
0.99411002
0.99430430
0.99446261
0.99456847
0.99460497
0.99455362
0.99439223
0.99409458
0.99362641
0.99294447
0.99199251
0.99070188
0.98898521
0.98673166
0.98380071
0.98001836
0.97517382
0.96901575
0.96125571
0.95157489
0.93963496
0.92508621
0.90756657
0.88670402
0.86209923
0.83332133
0.79993091
0.76154134
0.71788625
0.66897814
0.61526145
0.55775195
0.49801871
0.43799097
0.37963408
0.32465426
0.27430521
0.22932836
0.18999768
0.15621973
0.12764848
0.10378998
0.08408497
0.06796763
0.05490329
0.04440984
0.03606759
0.02952174
0.02448041
0.02071051
0.01803293
0.01631787
0.01548106
0.01260772
0.01329467
0.01470356
0.01690571
0.02001144
0.02417398
0.02959452
0.03652796
0.04528902
0.05625763
0.06988216
0.08667821
0.10721957
0.13211675
0.16197722
0.19734114
0.23858740
0.28581040
0.33867847
0.39630589
0.45719254
0.51930427
0.58034853
0.63819634
0.69129085
0.73882629
0.78063945
0.81697817
0.84829880
0.87512244
0.89794274
0.91720660
0.93329710
0.94656708
0.95736746
0.96605085
0.97295670
0.97839788
0.98265021
0.98595174
0.98849456
0.99043615
0.99190400
0.99298963
0.99377804
0.99432867
0.99468580
0.99489567
0.99498616
0.99497826
0.99489163
0.99475054
0.99456804
0.99435446
0.99412295
0.99387739
0.99363107
0.99339616
0.99317914
0.99299528
0.99285087
0.99276763
0.99275075
0.99281419
0.99296264
0.99321599
0.99357189
0.99402313
0.99456474
0.99518886
0.99588165
0.99662821
0.99743031
0.99830069
0.99925877
1.00033688
1.00153493
1.00277069
1.00397625
1.00507521
1.00599891
1.00675903
1.00735683
1.00779100
1.00808746
1.00825491
1.00832650
1.00831565
1.00824095
1.00809824
1.00791193
1.00769246
1.00743088
1.00714269
1.00683994
1.00649617
1.00613174
1.00572658
1.00528280
1.00480148
1.00428227
1.00372946
1.00311853
1.00248684
1.00182229
1.00122774
1.00077294
1.00064615
1.00087431
1.00127353
1.00176818
1.00217516
1.00258628
1.00292228
1.00326426
1.00352855
1.00386534
1.00420201
1.00451933
1.00490478
1.00538451
1.00581543
1.00644824
1.00715269
1.00792108
1.00883477
1.00980868
1.01095212
1.01229602
1.01395242
1.01591111
1.01804344
1.02032182
1.02243975
1.02437883
1.02535869
1.02606974
1.02682646
1.02757943
1.02832039
1.02903112
1.02969740
1.03030706
1.03084994
1.03131808
1.03170564
1.03200863
1.03222455
1.03235204
1.03239048
1.03233981
1.03220039
1.03197311
1.03165961
1.03126259
1.03078619
1.03023631
1.02962086
1.02894997
1.02823645
1.02749609
1.02674750
1.02600712
1.02528721
1.02424136
1.02243903
1.02035015
1.01819925
1.01611180
1.01413296
1.01237482
1.01091674
1.00966320
1.00854321
1.00760673
1.00677438
1.00608543
1.00551680
1.00501917
1.00463896
1.00430522
1.00401100
1.00373018
1.00350415
1.00321947
1.00292307
1.00257374
1.00222241
1.00178962
1.00134234
1.00083261
1.00061912
1.00074698
1.00116135
1.00175226
1.00240005
1.00302657
1.00363184
1.00419503
1.00469811
1.00516999
1.00559336
1.00598321
1.00634229
1.00667360
1.00697107
1.00724614
1.00749565
1.00771310
1.00790043
1.00805057
1.00813412
1.00815826
1.00810452
1.00793757
1.00765970
1.00724661
1.00667700
1.00593123
1.00503029
1.00397698
1.00280878
1.00158218
1.00039628
0.99929992
0.99832597
0.99743676
0.99660930
0.99583822
0.99512523
0.99448246
0.99391716
0.99343861
0.99306290
0.99279678
0.99263452
0.99257227
0.99259371
0.99268710
0.99283832
0.99303163
0.99325856
0.99350601
0.99375747
0.99400554
0.99424089
0.99445939
0.99464651
0.99478430
0.99485435
0.99484406
0.99473418
0.99449876
0.99411351
0.99353416
0.99271197
0.99158656
0.99007817
0.98808882
0.98548447
0.98210892
0.97775618
0.97218468
0.96510805
0.95620693
0.94513584
0.93155536
0.91511046
0.89543908
0.87215364
0.84480322
0.81287617
0.77586378
0.73332949
0.68506778
0.63130700
0.57295439
0.51165043
0.44956938
0.38898940
0.33188756
0.27968963
0.23320878
0.19271768
0.15808075
0.12889435
0.10460694
0.08460946
0.06829648
0.05510352
0.04452687
0.03613170
0.02955277
0.02449116
0.02070914
0.01802456
0.01630573
0.01546729
0.01257965
0.01326824
0.01468107
0.01689087
0.02001045
0.02419704
0.02965806
0.03665797
0.04552588
0.05666314
0.07054942
0.08774515
0.10888653
0.13466784
0.16580315
0.20295757
0.24663764
0.29703285
0.35381548
0.41593362
0.48148008
0.54778332
0.61184316
0.67105744
0.72380975
0.76966391
0.80892599
0.84231874
0.87061613
0.89457176
0.91478265
0.93170520
0.94569618
0.95707976
0.96617155
0.97333917
0.97893584
0.98324780
0.98657241
0.98912077
0.99104272
0.99249876
0.99358338
0.99435324
0.99489829
0.99525691
0.99546912
0.99555894
0.99555559
0.99546198
0.99529856
0.99508659
0.99486733
0.99461765
0.99435480
0.99407238
0.99378652
0.99354631
0.99329691
0.99308925
0.99290877
0.99279845
0.99274567
0.99279126
0.99291815
0.99317313
0.99352381
0.99398152
0.99453430
0.99517309
0.99586618
0.99660123
0.99735646
0.99817608
0.99907365
1.00014374
1.00147051
1.00282987
1.00414807
1.00531763
1.00624784
1.00703489
1.00762161
1.00804300
1.00828705
1.00842828
1.00846610
1.00843234
1.00838557
1.00824573
1.00800605
1.00779662
1.00752495
1.00722514
1.00695177
1.00657838
1.00625332
1.00582115
1.00540051
1.00490521
1.00437360
1.00384925
1.00322486
1.00252517
1.00172785
1.00096060
1.00032267
1.00008242
1.00058801
1.00118290
1.00176092
1.00231691
1.00251175
1.00306038
1.00331024
1.00357654
1.00387770
1.00416259
1.00451803
1.00493012
1.00545487
1.00580216
1.00636425
1.00707082
1.00782947
1.00878039
1.00962469
1.01061590
1.01195455
1.01346640
1.01558061
1.01785028
1.02025721
1.02232574
1.02412085
1.02501749
1.02587019
1.02669640
1.02750247
1.02827635
1.02901047
1.02969426
1.03031701
1.03086934
1.03134388
1.03173534
1.03204033
1.03225705
1.03238471
1.03242313
1.03237239
1.03223272
1.03200459
1.03168904
1.03128815
1.03080545
1.03024629
1.02961805
1.02893003
1.02819308
1.02741895
1.02661876
1.02580893
1.02497556
1.02388264
1.02241082
1.02019688
1.01806083
1.01584920
1.01380741
1.01196657
1.01061613
1.00935371
1.00846447
1.00748797
1.00668117
1.00620691
1.00558670
1.00507621
1.00466645
1.00439287
1.00400196
1.00365643
1.00350511
1.00324326
1.00298201
1.00270591
1.00236014
1.00172813
1.00122245
1.00053158
1.00017293
1.00032154
1.00092064
1.00168634
1.00242588
1.00314632
1.00375445
1.00431490
1.00480943
1.00524348
1.00566064
1.00604671
1.00641279
1.00674227
1.00703796
1.00730125
1.00757189
1.00780763
1.00796348
1.00812894
1.00822456
1.00831849
1.00830605
1.00813336
1.00790348
1.00752047
1.00694919
1.00623395
1.00526925
1.00415664
1.00287810
1.00154042
1.00026471
0.99913554
0.99820424
0.99737177
0.99658679
0.99581426
0.99510331
0.99445409
0.99389558
0.99339987
0.99300945
0.99274325
0.99258673
0.99255520
0.99261757
0.99275233
0.99291694
0.99312947
0.99338251
0.99366719
0.99394637
0.99423058
0.99450428
0.99476629
0.99501268
0.99521501
0.99534029
0.99540123
0.99539336
0.99527548
0.99505450
0.99466208
0.99408967
0.99329325
0.99218053
0.99069037
0.98871492
0.98612520
0.98273809
0.97831884
0.97259090
0.96523585
0.95588908
0.94422727
0.92989223
0.91258683
0.89194581
0.86750169
0.83860702
0.80450831
0.76443246
0.71770627
0.66407832
0.60415667
0.53966055
0.47329407
0.40804702
0.34650950
0.29048339
0.24092297
0.19808239
0.16172450
0.13131715
0.10618546
0.08561644
0.06892356
0.05548225
0.04474585
0.03624957
0.02960778
0.02450789
0.02070312
0.01800551
0.01627972
0.01543829
0.01253509
0.01322570
0.01464345
0.01686308
0.02000084
0.02421955
0.02973542
0.03682642
0.04584227
0.05721521
0.07147067
0.08923560
0.11124073
0.13831042
0.17132961
0.21117268
0.25857332
0.31391200
0.37691177
0.44627047
0.51937138
0.59236135
0.66094635
0.72181250
0.77344324
0.81620160
0.85118300
0.87980667
0.90336433
0.92291925
0.93924408
0.95272119
0.96364341
0.97223679
0.97879812
0.98372780
0.98740323
0.99007268
0.99210037
0.99355283
0.99462881
0.99541988
0.99597695
0.99630514
0.99651317
0.99657940
0.99659962
0.99655394
0.99637013
0.99618904
0.99592198
0.99561927
0.99533996
0.99502910
0.99475964
0.99441403
0.99408089
0.99382777
0.99351401
0.99329718
0.99302363
0.99292308
0.99280543
0.99283019
0.99289843
0.99319464
0.99351407
0.99397302
0.99452607
0.99521622
0.99587424
0.99660131
0.99732298
0.99802102
0.99883576
0.99983948
1.00132561
1.00298756
1.00445398
1.00561175
1.00673484
1.00737236
1.00793267
1.00829522
1.00849414
1.00860644
1.00872459
1.00872389
1.00865489
1.00834763
1.00813752
1.00791738
1.00764615
1.00721029
1.00716885
1.00673141
1.00641343
1.00602773
1.00559710
1.00513841
1.00458287
1.00392707
1.00339895
1.00281829
1.00171688
1.00093471
0.99976293
0.99967196
1.00023174
1.00116979
1.00184184
1.00237485
1.00276266
1.00322152
1.00350592
1.00379288
1.00415732
1.00435732
1.00472832
1.00514982
1.00573960
1.00615304
1.00698402
1.00765293
1.00854344
1.00924912
1.00980604
1.01070346
1.01187044
1.01329254
1.01538739
1.01764183
1.02029459
1.02206101
1.02354642
1.02465506
1.02564361
1.02655053
1.02740908
1.02822279
1.02898799
1.02969609
1.03033753
1.03090352
1.03138715
1.03178383
1.03209116
1.03230842
1.03243589
1.03247411
1.03242343
1.03228381
1.03205503
1.03173710
1.03133099
1.03083930
1.03026675
1.02962024
1.02890850
1.02814113
1.02732722
1.02647234
1.02557587
1.02461735
1.02348144
1.02208326
1.02011085
1.01771082
1.01554962
1.01369889
1.01211699
1.01071341
1.00964561
1.00880568
1.00812157
1.00729510
1.00650716
1.00600788
1.00523273
1.00485070
1.00463178
1.00412570
1.00394374
1.00368738
1.00346922
1.00314632
1.00281283
1.00236812
1.00184128
1.00138988
1.00041127
0.99974148
1.00003383
1.00052724
1.00161171
1.00257688
1.00327625
1.00411438
1.00462071
1.00503068
1.00546571
1.00584683
1.00612603
1.00661046
1.00685241
1.00729224
1.00739206
1.00767659
1.00792181
1.00803332
1.00818469
1.00830873
1.00852151
1.00854980
1.00839549
1.00826815
1.00792004
1.00732888
1.00672332
1.00566684
1.00439528
1.00294857
1.00142726
0.99998977
0.99890792
0.99811019
0.99734720
0.99662900
0.99580843
0.99510656
0.99441153
0.99385655
0.99336867
0.99297718
0.99270746
0.99251559
0.99259262
0.99269562
0.99287249
0.99302069
0.99332083
0.99363857
0.99390212
0.99428643
0.99455518
0.99488081
0.99526760
0.99555115
0.99583764
0.99602143
0.99622701
0.99631839
0.99643142
0.99640497
0.99624951
0.99605431
0.99571258
0.99514673
0.99437627
0.99325799
0.99178404
0.98976174
0.98703948
0.98330914
0.97822157
0.97140494
0.96258097
0.95135331
0.93751488
0.92086842
0.90087716
0.87671324
0.84734522
0.81139712
0.76760080
0.71479705
0.65284780
0.58349746
0.51028248
0.43746345
0.36878423
0.30669122
0.25234235
0.20591770
0.16698059
0.13477202
0.10841184
0.08702111
0.06978782
0.05599661
0.04503716
0.03640101
0.02967312
0.02452135
0.02068616
0.01797135
0.01623651
0.01539121
0.01247133
0.01316383
0.01458642
0.01681618
0.01997350
0.02422791
0.02980624
0.03700300
0.04619332
0.05784815
0.07255113
0.09101568
0.11409860
0.14280349
0.17826095
0.22166297
0.27411504
0.33635318
0.40826482
0.48822567
0.57243014
0.65489047
0.72915855
0.79106084
0.84006089
0.87778375
0.90656718
0.92834290
0.94533999
0.95899601
0.97021830
0.97930126
0.98637940
0.99132132
0.99444804
0.99640196
0.99771389
0.99834039
0.99879504
0.99899093
0.99906634
0.99916767
0.99905725
0.99894718
0.99873213
0.99854920
0.99824107
0.99797643
0.99757608
0.99723781
0.99682648
0.99654748
0.99615151
0.99572463
0.99542084
0.99514455
0.99475852
0.99438469
0.99404855
0.99365082
0.99336701
0.99323427
0.99319187
0.99297028
0.99312170
0.99335988
0.99359821
0.99415193
0.99474232
0.99527777
0.99595661
0.99676800
0.99740362
0.99803578
0.99864058
0.99964918
1.00128243
1.00325407
1.00478023
1.00595424
1.00697711
1.00771132
1.00828076
1.00867489
1.00890484
1.00902211
1.00893867
1.00882823
1.00866408
1.00875869
1.00834306
1.00805363
1.00803063
1.00747867
1.00745935
1.00696586
1.00668730
1.00637939
1.00591671
1.00550985
1.00490982
1.00448519
1.00386796
1.00314042
1.00221129
1.00160671
1.00095698
1.00080801
1.00113454
1.00168274
1.00218864
1.00263708
1.00294444
1.00332441
1.00357384
1.00394164
1.00433672
1.00474246
1.00528629
1.00585561
1.00651030
1.00723070
1.00788178
1.00873210
1.00956943
1.01049599
1.01124815
1.01211107
1.01322084
1.01453184
1.01627621
1.01826233
1.02017967
1.02182767
1.02320649
1.02438449
1.02543927
1.02640691
1.02731471
1.02817049
1.02897143
1.02970950
1.03037490
1.03095851
1.03145347
1.03185593
1.03216495
1.03238160
1.03250786
1.03254546
1.03249519
1.03235659
1.03212825
1.03180853
1.03139662
1.03089371
1.03030381
1.02963382
1.02889287
1.02809075
1.02723585
1.02633211
1.02537543
1.02434595
1.02318053
1.02182409
1.02013903
1.01829878
1.01650787
1.01481571
1.01342136
1.01218498
1.01123586
1.01019269
1.00934510
1.00853476
1.00768057
1.00689668
1.00612018
1.00561147
1.00507936
1.00461767
1.00423904
1.00392028
1.00360373
1.00333465
1.00299711
1.00262913
1.00216360
1.00175838
1.00127831
1.00082641
1.00096725
1.00136900
1.00227234
1.00308523
1.00364370
1.00422877
1.00481350
1.00540021
1.00580574
1.00614588
1.00640606
1.00685255
1.00716489
1.00745886
1.00753737
1.00791299
1.00815206
1.00830158
1.00872630
1.00859814
1.00880727
1.00873329
1.00854577
1.00844869
1.00813365
1.00767400
1.00700230
1.00582275
1.00474246
1.00328676
1.00145063
0.99985144
0.99878511
0.99817708
0.99742317
0.99697473
0.99609578
0.99528542
0.99467614
0.99407213
0.99346279
0.99326911
0.99300657
0.99281251
0.99300460
0.99309997
0.99316669
0.99355923
0.99384481
0.99413538
0.99440270
0.99484742
0.99525263
0.99548406
0.99589809
0.99632586
0.99684032
0.99705315
0.99747611
0.99774900
0.99812190
0.99822861
0.99852893
0.99862703
0.99882976
0.99894168
0.99894338
0.99894302
0.99866553
0.99839182
0.99773539
0.99652424
0.99448059
0.99085877
0.98578374
0.97854188
0.96907680
0.95771925
0.94380564
0.92610664
0.90338386
0.87367203
0.83463860
0.78419246
0.72056958
0.64501750
0.56201449
0.47806938
0.39894997
0.32818763
0.26717843
0.21590211
0.17355985
0.13902540
0.11110924
0.08869505
0.07079861
0.05658388
0.04535802
0.03655712
0.02972935
0.02451848
0.02064935
0.01791585
0.01617142
0.01532212
0.01238513
0.01307878
0.01450478
0.01674272
0.01991736
0.02420550
0.02984548
0.03715004
0.04652263
0.05847808
0.07366735
0.09290631
0.11720584
0.14779731
0.18613922
0.23387491
0.29268360
0.36391521
0.44786164
0.54248423
0.64189883
0.73605414
0.81537417
0.87594195
0.91971469
0.95038666
0.97076333
0.98330557
0.99183062
0.99837555
1.00386809
1.00764680
1.01031367
1.01112837
1.01069615
1.00962496
1.00850268
1.00731326
1.00634670
1.00526480
1.00445676
1.00378540
1.00309125
1.00242923
1.00183611
1.00125036
1.00071831
1.00017590
0.99963079
0.99910702
0.99870062
0.99818991
0.99775666
0.99739531
0.99688135
0.99657203
0.99624366
0.99571122
0.99522098
0.99508267
0.99474472
0.99455251
0.99453428
0.99438519
0.99433157
0.99450869
0.99475543
0.99526029
0.99587792
0.99630920
0.99707645
0.99766333
0.99834838
0.99902864
0.99980519
1.00087097
1.00221400
1.00381805
1.00518569
1.00626823
1.00718669
1.00793367
1.00846315
1.00884527
1.00906481
1.00925013
1.00922721
1.00916996
1.00906518
1.00890119
1.00879955
1.00858316
1.00831758
1.00804340
1.00777139
1.00743125
1.00717289
1.00680691
1.00636463
1.00594262
1.00545187
1.00495549
1.00439775
1.00375329
1.00307232
1.00249572
1.00207538
1.00192912
1.00203329
1.00229955
1.00261748
1.00291725
1.00318453
1.00348064
1.00378498
1.00414938
1.00457830
1.00509556
1.00573122
1.00645465
1.00728270
1.00818774
1.00913042
1.01011532
1.01107424
1.01200455
1.01287053
1.01375979
1.01476889
1.01593617
1.01731679
1.01883736
1.02034299
1.02176246
1.02304959
1.02421145
1.02528054
1.02628175
1.02722955
1.02812671
1.02896759
1.02974177
1.03043711
1.03104261
1.03155067
1.03195830
1.03226677
1.03248011
1.03260303
1.03263920
1.03259009
1.03245457
1.03222932
1.03190997
1.03149284
1.03097690
1.03036536
1.02966592
1.02888963
1.02804867
1.02715371
1.02621109
1.02521984
1.02416836
1.02303109
1.02178246
1.02038451
1.01890165
1.01744219
1.01609017
1.01488211
1.01382626
1.01284899
1.01188282
1.01093204
1.00995102
1.00896179
1.00800539
1.00709825
1.00629947
1.00560733
1.00501863
1.00452347
1.00412545
1.00379658
1.00349184
1.00320902
1.00293729
1.00264080
1.00235639
1.00208622
1.00193314
1.00207669
1.00247854
1.00310229
1.00372100
1.00429229
1.00485575
1.00538639
1.00586262
1.00626764
1.00666442
1.00695380
1.00724997
1.00758620
1.00782115
1.00805631
1.00828368
1.00846692
1.00862435
1.00883252
1.00893247
1.00899216
1.00895283
1.00883981
1.00865593
1.00824961
1.00778924
1.00708170
1.00617919
1.00510931
1.00371479
1.00228866
1.00093748
0.99988518
0.99896926
0.99846171
0.99768794
0.99689101
0.99616778
0.99575381
0.99502594
0.99466927
0.99436170
0.99401930
0.99410576
0.99422979
0.99429926
0.99448919
0.99473220
0.99515941
0.99545172
0.99589850
0.99626272
0.99663026
0.99703484
0.99761666
0.99811350
0.99864743
0.99920550
0.99968815
1.00020517
1.00065811
1.00112747
1.00169217
1.00227172
1.00293698
1.00356289
1.00432782
1.00518410
1.00623323
1.00736951
1.00874762
1.00993826
1.01107466
1.01130535
1.01008684
1.00764981
1.00353065
0.99801161
0.99116370
0.98196867
0.96856447
0.94726612
0.91494742
0.86940865
0.80653658
0.72506681
0.62968830
0.53045084
0.43692938
0.35450687
0.28485032
0.22749241
0.18101810
0.14374048
0.11403382
0.09046706
0.07183814
0.05716415
0.04565473
0.03668201
0.02975256
0.02448329
0.02058190
0.01783147
0.01607883
0.01522628
0.01227299
0.01296637
0.01439290
0.01663454
0.01982027
0.02413392
0.02982523
0.03722510
0.04676581
0.05900755
0.07467255
0.09468801
0.12023809
0.15282161
0.19430306
0.24692355
0.31318676
0.39543343
0.49471957
0.60839719
0.72642707
0.83087727
0.90934355
0.96283791
0.99752124
1.01728769
1.02459928
1.02455752
1.02329383
1.02262632
1.02273100
1.02288708
1.02263847
1.02168447
1.02011361
1.01818203
1.01625852
1.01434933
1.01257951
1.01104429
1.00963981
1.00845806
1.00735389
1.00632128
1.00545118
1.00461350
1.00380156
1.00310674
1.00242409
1.00174434
1.00110881
1.00051757
0.99995008
0.99942316
0.99896834
0.99853939
0.99806133
0.99764939
0.99727489
0.99690763
0.99662680
0.99639765
0.99626190
0.99623202
0.99620164
0.99635272
0.99656908
0.99691047
0.99741086
0.99792144
0.99850868
0.99909266
0.99973539
1.00045393
1.00120528
1.00221520
1.00333922
1.00454589
1.00567816
1.00666790
1.00748563
1.00816236
1.00868301
1.00905338
1.00931024
1.00946991
1.00953999
1.00952499
1.00945379
1.00933441
1.00920020
1.00903344
1.00882298
1.00858212
1.00831173
1.00801410
1.00770526
1.00733925
1.00695718
1.00652101
1.00603542
1.00554913
1.00502676
1.00445935
1.00390860
1.00342244
1.00304947
1.00284149
1.00280237
1.00287961
1.00302137
1.00319700
1.00339517
1.00363123
1.00392388
1.00429854
1.00477584
1.00537947
1.00613069
1.00702398
1.00805634
1.00919395
1.01038654
1.01157700
1.01269215
1.01369033
1.01457217
1.01539480
1.01624021
1.01717807
1.01824826
1.01941417
1.02062736
1.02183027
1.02298870
1.02409407
1.02515246
1.02617145
1.02715352
1.02809395
1.02898158
1.02980077
1.03053432
1.03116709
1.03168958
1.03209987
1.03240291
1.03260762
1.03272327
1.03275657
1.03271003
1.03258146
1.03236452
1.03205036
1.03163046
1.03110007
1.03046147
1.02972425
1.02890361
1.02801686
1.02707981
1.02610415
1.02509558
1.02405303
1.02296996
1.02184234
1.02067270
1.01948930
1.01834502
1.01728609
1.01632607
1.01544278
1.01457698
1.01364898
1.01261742
1.01148345
1.01028761
1.00909239
1.00795543
1.00693631
1.00605494
1.00532718
1.00473959
1.00428005
1.00392672
1.00364529
1.00342001
1.00323363
1.00306765
1.00293229
1.00284905
1.00287542
1.00307007
1.00342910
1.00392153
1.00444464
1.00497625
1.00549046
1.00597606
1.00642337
1.00682420
1.00719894
1.00751611
1.00781527
1.00809057
1.00831376
1.00854163
1.00872957
1.00888427
1.00902660
1.00913004
1.00918984
1.00920907
1.00915196
1.00901532
1.00877554
1.00841829
1.00792328
1.00727905
1.00647624
1.00552176
1.00442175
1.00324636
1.00215707
1.00115253
1.00034438
0.99965895
0.99896963
0.99834293
0.99775078
0.99721737
0.99673506
0.99637485
0.99610391
0.99596476
0.99595327
0.99603035
0.99618531
0.99639599
0.99668320
0.99708724
0.99748902
0.99788188
0.99834092
0.99886712
0.99940502
0.99994242
1.00048307
1.00108986
1.00171169
1.00235557
1.00302366
1.00373889
1.00453588
1.00539421
1.00630345
1.00732932
1.00845618
1.00966961
1.01108730
1.01271224
1.01451027
1.01647362
1.01854083
1.02045698
1.02195748
1.02284699
1.02296231
1.02273261
1.02276894
1.02353702
1.02481734
1.02407856
1.01550882
0.99401903
0.95727747
0.90110353
0.81944731
0.71228302
0.59395894
0.48170122
0.38448697
0.30428984
0.23983152
0.18871949
0.14846719
0.11687614
0.09212812
0.07276681
0.05764479
0.04586609
0.03673534
0.02971613
0.02439816
0.02047197
0.01771000
0.01595263
0.01509854
0.01213144
0.01282247
0.01424519
0.01648350
0.01967000
0.02399456
0.02971696
0.03718438
0.04685544
0.05933267
0.07540634
0.09611313
0.12281355
0.15729076
0.20186539
0.25949774
0.33377130
0.42842883
0.54570931
0.68163605
0.81737071
0.92130959
0.98824990
1.02878728
1.04771697
1.05306244
1.05128576
1.04653726
1.04187926
1.03823437
1.03561232
1.03358647
1.03170384
1.02967110
1.02740611
1.02499165
1.02262505
1.02034328
1.01821187
1.01628563
1.01451746
1.01293442
1.01150334
1.01021110
1.00904087
1.00794631
1.00694511
1.00604922
1.00520883
1.00440447
1.00366137
1.00297289
1.00231748
1.00170924
1.00114528
1.00062259
1.00013262
0.99969025
0.99929170
0.99892068
0.99861466
0.99837269
0.99820063
0.99812578
0.99812308
0.99821255
0.99839585
0.99867653
0.99905984
0.99949896
1.00001359
1.00057508
1.00118489
1.00184529
1.00259122
1.00344924
1.00438735
1.00536364
1.00630053
1.00715055
1.00788078
1.00848929
1.00897128
1.00934007
1.00960551
1.00977964
1.00987589
1.00990299
1.00987481
1.00979475
1.00967558
1.00952576
1.00934185
1.00912605
1.00887724
1.00859967
1.00829164
1.00794576
1.00756753
1.00715027
1.00669507
1.00621770
1.00571358
1.00519739
1.00469560
1.00424109
1.00386828
1.00360369
1.00345023
1.00338789
1.00339268
1.00344964
1.00355737
1.00372751
1.00398133
1.00434734
1.00485532
1.00553366
1.00640848
1.00748755
1.00875859
1.01017924
1.01167312
1.01313244
1.01444636
1.01552089
1.01634772
1.01701078
1.01762729
1.01829569
1.01906693
1.01994591
1.02090823
1.02191988
1.02295328
1.02399230
1.02502981
1.02606099
1.02707853
1.02806991
1.02901671
1.02989535
1.03068000
1.03134786
1.03188548
1.03229274
1.03258092
1.03276735
1.03286881
1.03289676
1.03285524
1.03274044
1.03254132
1.03224168
1.03182478
1.03127902
1.03060547
1.02981755
1.02893806
1.02799287
1.02700571
1.02599534
1.02497482
1.02395229
1.02293305
1.02192456
1.02094028
1.02000355
1.01914387
1.01838031
1.01770668
1.01707368
1.01638811
1.01553515
1.01443589
1.01310637
1.01164033
1.01014459
1.00872374
1.00745395
1.00637868
1.00551071
1.00484006
1.00434293
1.00399032
1.00374910
1.00359228
1.00349774
1.00345155
1.00345323
1.00351517
1.00366357
1.00391888
1.00428014
1.00472282
1.00520346
1.00569824
1.00618010
1.00663821
1.00705924
1.00744335
1.00779067
1.00809518
1.00837047
1.00861613
1.00883134
1.00902282
1.00919013
1.00932530
1.00942823
1.00949977
1.00952564
1.00950206
1.00941576
1.00925174
1.00899863
1.00864629
1.00817883
1.00759574
1.00688718
1.00606916
1.00516098
1.00420205
1.00327220
1.00241525
1.00167228
1.00100012
1.00037605
0.99979995
0.99928493
0.99882458
0.99843593
0.99812747
0.99793695
0.99783845
0.99784229
0.99793331
0.99811353
0.99837759
0.99869678
0.99908282
0.99950788
0.99997172
1.00048864
1.00104583
1.00164133
1.00227044
1.00292890
1.00362928
1.00437159
1.00517445
1.00602563
1.00693754
1.00793736
1.00902766
1.01023299
1.01154393
1.01299252
1.01460361
1.01640086
1.01838453
1.02055676
1.02289060
1.02533071
1.02774509
1.02999650
1.03201228
1.03388433
1.03596634
1.03868583
1.04240917
1.04717868
1.05171528
1.05296531
1.04627082
1.02489893
0.98182235
0.91111481
0.80185893
0.66452900
0.53026884
0.41571899
0.32370616
0.25166656
0.19581982
0.15264938
0.11927397
0.09344344
0.07343259
0.05792731
0.04592817
0.03667551
0.02959292
0.02424523
0.02030766
0.01754324
0.01578677
0.01493383
0.01195742
0.01264339
0.01405657
0.01628218
0.01945530
0.02377020
0.02949409
0.03698668
0.04672729
0.05935271
0.07570965
0.09692825
0.12452480
0.16054429
0.20774952
0.26984337
0.35161057
0.45849868
0.59407076
0.75126346
0.89537514
0.98580482
1.03897356
1.06387788
1.07131713
1.07036242
1.06577995
1.06006171
1.05455639
1.04981655
1.04588753
1.04256043
1.03955034
1.03666131
1.03380273
1.03097297
1.02823662
1.02563138
1.02319667
1.02095683
1.01890150
1.01703461
1.01534134
1.01380201
1.01240173
1.01111861
1.00994688
1.00887806
1.00789131
1.00697331
1.00612622
1.00534168
1.00461310
1.00393478
1.00330918
1.00273413
1.00220669
1.00172942
1.00129833
1.00091430
1.00059016
1.00032797
1.00013457
1.00001979
0.99998495
1.00003740
1.00017831
1.00040454
1.00071100
1.00108710
1.00153030
1.00202923
1.00258277
1.00318971
1.00386157
1.00460299
1.00539619
1.00620626
1.00699067
1.00771586
1.00835652
1.00890175
1.00934968
1.00970351
1.00996913
1.01015543
1.01027287
1.01032871
1.01032953
1.01028113
1.01019025
1.01006121
1.00989765
1.00970057
1.00947029
1.00920817
1.00891291
1.00858110
1.00821396
1.00781009
1.00737082
1.00690273
1.00641281
1.00591453
1.00542709
1.00497347
1.00457615
1.00425141
1.00400363
1.00382609
1.00371002
1.00365140
1.00365595
1.00373978
1.00392926
1.00425923
1.00477009
1.00550333
1.00649657
1.00777199
1.00932383
1.01110464
1.01300377
1.01483860
1.01644104
1.01760044
1.01828591
1.01867038
1.01895976
1.01930259
1.01977091
1.02038240
1.02112269
1.02196584
1.02288573
1.02386218
1.02488048
1.02592794
1.02699016
1.02804788
1.02907466
1.03003621
1.03089290
1.03160794
1.03216058
1.03255366
1.03280968
1.03296096
1.03303654
1.03305497
1.03302243
1.03293271
1.03276787
1.03250032
1.03209766
1.03153691
1.03081598
1.02995637
1.02899455
1.02797006
1.02691719
1.02586252
1.02482567
1.02382141
1.02286266
1.02196396
1.02114411
1.02042683
1.01983590
1.01938303
1.01904928
1.01876134
1.01837190
1.01767359
1.01648581
1.01487842
1.01303825
1.01114138
1.00935428
1.00779254
1.00650838
1.00550966
1.00477531
1.00426887
1.00394798
1.00377108
1.00370206
1.00371280
1.00378493
1.00391110
1.00409352
1.00434109
1.00466046
1.00504792
1.00548728
1.00595515
1.00643042
1.00689324
1.00733053
1.00773315
1.00809773
1.00842254
1.00870896
1.00896121
1.00918243
1.00937472
1.00954096
1.00968042
1.00979035
1.00986726
1.00990829
1.00990532
1.00985201
1.00974030
1.00956073
1.00930408
1.00896254
1.00852957
1.00800227
1.00738106
1.00667778
1.00591186
1.00511430
1.00432801
1.00358946
1.00291686
1.00230328
1.00174446
1.00124256
1.00079752
1.00041638
1.00010554
0.99987523
0.99973355
0.99967802
0.99971456
0.99983625
1.00003835
1.00031527
1.00065632
1.00105896
1.00151435
1.00201985
1.00257687
1.00318081
1.00383120
1.00453126
1.00527970
1.00608366
1.00694825
1.00788111
1.00888494
1.00997283
1.01115554
1.01245023
1.01386884
1.01542748
1.01714551
1.01904009
1.02112672
1.02340879
1.02588617
1.02853213
1.03130838
1.03416060
1.03703959
1.03994662
1.04299204
1.04638360
1.05039102
1.05521656
1.06078823
1.06648081
1.07076782
1.07107902
1.06192629
1.03412699
0.97758178
0.88092676
0.73200393
0.57612763
0.44401285
0.34043384
0.26134280
0.20130339
0.15566420
0.12084290
0.09417371
0.07368514
0.05791644
0.04578017
0.03646347
0.02935767
0.02400806
0.02007807
0.01732372
0.01557577
0.01472757
0.01174849
0.01242619
0.01382298
0.01602456
0.01916702
0.02344667
0.02913460
0.03659754
0.04632716
0.05898154
0.07544390
0.09690678
0.12499399
0.16193762
0.21083108
0.27596302
0.36312726
0.47926080
0.62912736
0.80125736
0.94321754
1.02124606
1.06266908
1.07916317
1.08253188
1.08010933
1.07528789