# vtk DataFile Version 3.0
Concentration output
ASCII
DATASET STRUCTURED_POINTS
DIMENSIONS 298 298 1
ORIGIN 0 0 0
SPACING 0.03 0.03 1.0
POINT_DATA 88804
SCALARS Variable float 1
LOOKUP_TABLE default
0.00000000
0.00000000
0.00000000
0.00000000
0.00000000
0.00000000
0.00000000
0.00000000
0.00000000
0.00000000
0.00000000
0.00000000
0.00000000
0.00000000
0.00000000
0.00000000
0.00000000
0.00000000
0.00000000
0.00000000
0.00000001
0.00000001
0.00000001
0.00000001
0.00000002
0.00000003
0.00000003
0.00000004
0.00000006
0.00000008
0.00000010
0.00000014
0.00000018
0.00000024
0.00000031
0.00000041
0.00000054
0.00000070
0.00000091
0.00000119
0.00000155
0.00000201
0.00000260
0.00000336
0.00000433
0.00000559
0.00000719
0.00000923
0.00001184
0.00001517
0.00001940
0.00002479
0.00003163
0.00004030
0.00005129
0.00006520
0.00008280
0.00010504
0.00013313
0.00016858
0.00021330
0.00026967
0.00034071
0.00043021
0.00054292
0.00068483
0.00086350
0.00108843
0.00137160
0.00172810
0.00217700
0.00274232
0.00345440
0.00435153
0.00548208
0.00690710
0.00870364
0.01096895
0.01382558
0.01742781
0.02196949
0.02769352
0.03490306
0.04397462
0.05537231
0.06966260
0.08752725
0.10977045
0.13731339
0.17116493
0.21235135
0.26178234
0.32002740
0.38698625
0.46147929
0.54086844
0.62098991
0.69677477
0.76373580
0.81945404
0.86397660
0.89881516
0.92583030
0.94673639
0.96290796
0.97526063
0.98436924
0.99072515
0.99487622
0.99738184
0.99871642
0.99929171
0.99940922
0.99926230
0.99899250
0.99871661
0.99848046
0.99833445
0.99827732
0.99841110
0.99885217
0.99975553
1.00123146
1.00298660
1.00463977
1.00607968
1.00729507
1.00836498
1.00962129
1.01124524
1.01363507
1.01712963
1.02196082
1.02800731
1.03459798
1.04031049
1.03983146
1.03863234
1.03782393
1.03740689
1.03722789
1.03718132
1.03720489
1.03726292
1.03733440
1.03740639
1.03747053
1.03752134
1.03755529
1.03757040
1.03756602
1.03754277
1.03750257
1.03744890
1.03738724
1.03732600
1.03727830
1.03726523
1.03732216
1.03751105
1.03794362
1.03876222
1.04005172
1.04051234
1.03477540
1.02816762
1.02211674
1.01713768
1.01349684
1.01093502
1.00915239
1.00793351
1.00694353
1.00585125
1.00459156
1.00306283
1.00136731
0.99989080
0.99888466
0.99836490
0.99814495
0.99812681
0.99824735
0.99844620
0.99870586
0.99894083
0.99907036
0.99895963
0.99836209
0.99700471
0.99448205
0.99028224
0.98383786
0.97456648
0.96195716
0.94539357
0.92394199
0.89627112
0.86056831
0.81501605
0.75814934
0.69014933
0.61366917
0.53332969
0.45418974
0.38028819
0.31411125
0.25671230
0.20810470
0.16766953
0.13447458
0.10748861
0.08570784
0.06822110
0.05423603
0.04308264
0.03420526
0.02714921
0.02154599
0.01709903
0.01357086
0.01077198
0.00855159
0.00678992
0.00539193
0.00428229
0.00340130
0.00270166
0.00214592
0.00170439
0.00135352
0.00107468
0.00085306
0.00067692
0.00053693
0.00042568
0.00033730
0.00026711
0.00021137
0.00016714
0.00013205
0.00010423
0.00008220
0.00006475
0.00005096
0.00004005
0.00003144
0.00002465
0.00001931
0.00001510
0.00001179
0.00000919
0.00000716
0.00000556
0.00000432
0.00000335
0.00000259
0.00000200
0.00000154
0.00000119
0.00000091
0.00000070
0.00000054
0.00000041
0.00000031
0.00000024
0.00000018
0.00000014
0.00000010
0.00000008
0.00000006
0.00000004
0.00000003
0.00000003
0.00000002
0.00000001
0.00000001
0.00000001
0.00000001
0.00000000
0.00000000
0.00000000
0.00000000
0.00000000
0.00000000
0.00000000
0.00000000
0.00000000
0.00000000
0.00000000
0.00000000
0.00000000
0.00000000
0.00000000
0.00000000
0.00000000
0.00000000
0.00000000
0.00000000
0.00000000
0.00000000
0.00000000
0.00000000
0.00000000
0.00000000
0.00000000
0.00000000
0.00000000
0.00000000
0.00000000
0.00000000
0.00000000
0.00000000
0.00000000
0.00000000
0.00000000
0.00000000
0.00000000
0.00000001
0.00000001
0.00000001
0.00000001
0.00000002
0.00000003
0.00000003
0.00000004
0.00000006
0.00000008
0.00000010
0.00000014
0.00000018
0.00000024
0.00000031
0.00000041
0.00000054
0.00000070
0.00000091
0.00000119
0.00000154
0.00000200
0.00000259
0.00000335
0.00000432
0.00000557
0.00000717
0.00000921
0.00001181
0.00001513
0.00001935
0.00002472
0.00003154
0.00004019
0.00005115
0.00006502
0.00008257
0.00010475
0.00013276
0.00016810
0.00021268
0.00026889
0.00033971
0.00042892
0.00054127
0.00068272
0.00086081
0.00108498
0.00136719
0.00172248
0.00216983
0.00273317
0.00344275
0.00433673
0.00546331
0.00688337
0.00867378
0.01093158
0.01377919
0.01737084
0.02190062
0.02761209
0.03481007
0.04387423
0.05527469
0.06958864
0.08751634
0.10989316
0.13769115
0.17199922
0.21396379
0.26466235
0.32487033
0.39468372
0.47298504
0.55684715
0.64124486
0.71978980
0.78706708
0.84083981
0.88221161
0.91348159
0.93717609
0.95545793
0.96962790
0.98056943
0.98861288
0.99406077
0.99736817
0.99916067
1.00000898
1.00023877
1.00007182
0.99975236
0.99932227
0.99893145
0.99863842
0.99842370
0.99829825
0.99830814
0.99851388
0.99941392
1.00112453
1.00311890
1.00501606
1.00645484
1.00759406
1.00835057
1.00943897
1.01078357
1.01283461
1.01615903
1.02092447
1.02708308
1.03324725
1.03765609
1.03807302
1.03771237
1.03735311
1.03715004
1.03707329
1.03707571
1.03712260
1.03719127
1.03726712
1.03734045
1.03740460
1.03745498
1.03748854
1.03750351
1.03749932
1.03747651
1.03743680
1.03738318
1.03732022
1.03725457
1.03719602
1.03715921
1.03716667
1.03725267
1.03746269
1.03782298
1.03821910
1.03779844
1.03369233
1.02725672
1.02123508
1.01623223
1.01267818
1.01051482
1.00904159
1.00805784
1.00722214
1.00618714
1.00477551
1.00324207
1.00135278
0.99959451
0.99861298
0.99825198
0.99811222
0.99821007
0.99839156
0.99867784
0.99897517
0.99942160
0.99971460
0.99985456
0.99962345
0.99884152
0.99699804
0.99363304
0.98820901
0.98005891
0.96890657
0.95433859
0.93557956
0.91122461
0.87907382
0.83667182
0.78154302
0.71299370
0.63354818
0.54885402
0.46527118
0.38764587
0.31870836
0.25942658
0.20961137
0.16843885
0.13481388
0.10758944
0.08568507
0.06814117
0.05413578
0.04298144
0.03411240
0.02706835
0.02147782
0.01704279
0.01352512
0.01073517
0.00852220
0.00676658
0.00537347
0.00426773
0.00338984
0.00269267
0.00213886
0.00169885
0.00134919
0.00107129
0.00085041
0.00067484
0.00053530
0.00042441
0.00033631
0.00026633
0.00021076
0.00016666
0.00013168
0.00010394
0.00008197
0.00006458
0.00005082
0.00003995
0.00003136
0.00002459
0.00001926
0.00001506
0.00001176
0.00000917
0.00000714
0.00000555
0.00000431
0.00000334
0.00000258
0.00000200
0.00000154
0.00000118
0.00000091
0.00000070
0.00000053
0.00000041
0.00000031
0.00000024
0.00000018
0.00000014
0.00000010
0.00000008
0.00000006
0.00000004
0.00000003
0.00000003
0.00000002
0.00000001
0.00000001
0.00000001
0.00000001
0.00000000
0.00000000
0.00000000
0.00000000
0.00000000
0.00000000
0.00000000
0.00000000
0.00000000
0.00000000
0.00000000
0.00000000
0.00000000
0.00000000
0.00000000
0.00000000
0.00000000
0.00000000
0.00000000
0.00000000
0.00000000
0.00000000
0.00000000
0.00000000
0.00000000
0.00000000
0.00000000
0.00000000
0.00000000
0.00000000
0.00000000
0.00000000
0.00000000
0.00000000
0.00000000
0.00000000
0.00000000
0.00000000
0.00000000
0.00000001
0.00000001
0.00000001
0.00000001
0.00000002
0.00000003
0.00000003
0.00000004
0.00000006
0.00000008
0.00000010
0.00000014
0.00000018
0.00000024
0.00000031
0.00000041
0.00000053
0.00000070
0.00000091
0.00000118
0.00000154
0.00000199
0.00000258
0.00000333
0.00000430
0.00000554
0.00000713
0.00000916
0.00001175
0.00001505
0.00001925
0.00002459
0.00003137
0.00003998
0.00005087
0.00006467
0.00008212
0.00010417
0.00013201
0.00016714
0.00021146
0.00026732
0.00033770
0.00042635
0.00053799
0.00067853
0.00085544
0.00107812
0.00135843
0.00171128
0.00215553
0.00271494
0.00341953
0.00430720
0.00542584
0.00683596
0.00861403
0.01085669
0.01368600
0.01725605
0.02176117
0.02744611
0.03461846
0.04366362
0.05506258
0.06941220
0.08744722
0.11006167
0.13832482
0.17348177
0.21691954
0.27006321
0.33414048
0.40971945
0.49591272
0.58924875
0.68267265
0.76665481
0.83410989
0.88354480
0.91820494
0.94209469
0.95919361
0.97223428
0.98248231
0.99083224
0.99684985
1.00046899
1.00221289
1.00269699
1.00258849
1.00221267
1.00137263
1.00084211
1.00003026
0.99961049
0.99903903
0.99881509
0.99860272
0.99849096
0.99842265
0.99923697
1.00106772
1.00369946
1.00592845
1.00721720
1.00846894
1.00922507
1.00993631
1.01090480
1.01212553
1.01502370
1.01975329
1.02557566
1.03112003
1.03471515
1.03609155
1.03654684
1.03668813
1.03675575
1.03681828
1.03689079
1.03697151
1.03705527
1.03713671
1.03721108
1.03727440
1.03732349
1.03735607
1.03737071
1.03736694
1.03734523
1.03730693
1.03725430
1.03719043
1.03711922
1.03704532
1.03697396
1.03691002
1.03685470
1.03679370
1.03665584
1.03622000
1.03493375
1.03147534
1.02588058
1.02010689
1.01560139
1.01240370
1.01068659
1.00986489
1.00886363
1.00834029
1.00730572
1.00594815
1.00405511
1.00157700
0.99948087
0.99833930
0.99845594
0.99862683
0.99853389
0.99899760
0.99942413
0.99994012
1.00059584
1.00119428
1.00180674
1.00232653
1.00241182
1.00184925
1.00024568
0.99670601
0.99076962
0.98231699
0.97158469
0.95816029
0.94056280
0.91565758
0.87996856
0.82877376
0.75961371
0.67417970
0.58026352
0.48730622
0.40198624
0.32748824
0.26450411
0.21236386
0.16979856
0.13537594
0.10771780
0.08559461
0.06795430
0.05391936
0.04276980
0.03392140
0.02690370
0.02133993
0.01692950
0.01343330
0.01066145
0.00846342
0.00671995
0.00533662
0.00423869
0.00336701
0.00267473
0.00212480
0.00168783
0.00134056
0.00106453
0.00084512
0.00067070
0.00053206
0.00042188
0.00033433
0.00026478
0.00020955
0.00016572
0.00013094
0.00010337
0.00008152
0.00006423
0.00005054
0.00003973
0.00003119
0.00002446
0.00001916
0.00001498
0.00001170
0.00000912
0.00000710
0.00000552
0.00000429
0.00000332
0.00000257
0.00000199
0.00000153
0.00000118
0.00000091
0.00000070
0.00000053
0.00000041
0.00000031
0.00000024
0.00000018
0.00000014
0.00000010
0.00000008
0.00000006
0.00000004
0.00000003
0.00000003
0.00000002
0.00000001
0.00000001
0.00000001
0.00000001
0.00000000
0.00000000
0.00000000
0.00000000
0.00000000
0.00000000
0.00000000
0.00000000
0.00000000
0.00000000
0.00000000
0.00000000
0.00000000
0.00000000
0.00000000
0.00000000
0.00000000
0.00000000
0.00000000
0.00000000
0.00000000
0.00000000
0.00000000
0.00000000
0.00000000
0.00000000
0.00000000
0.00000000
0.00000000
0.00000000
0.00000000
0.00000000
0.00000000
0.00000000
0.00000000
0.00000000
0.00000000
0.00000000
0.00000000
0.00000001
0.00000001
0.00000001
0.00000001
0.00000002
0.00000002
0.00000003
0.00000004
0.00000006
0.00000008
0.00000010
0.00000014
0.00000018
0.00000024
0.00000031
0.00000040
0.00000053
0.00000069
0.00000090
0.00000117
0.00000152
0.00000198
0.00000256
0.00000331
0.00000427
0.00000550
0.00000708
0.00000909
0.00001166
0.00001493
0.00001910
0.00002440
0.00003112
0.00003965
0.00005046
0.00006414
0.00008144
0.00010330
0.00013090
0.00016572
0.00020964
0.00026498
0.00033471
0.00042253
0.00053310
0.00067228
0.00084745
0.00106791
0.00134537
0.00169460
0.00213423
0.00268777
0.00338489
0.00426311
0.00536983
0.00676500
0.00852443
0.01074408
0.01354535
0.01708190
0.02154813
0.02718990
0.03431796
0.04332469
0.05470470
0.06908013
0.08723083
0.11012929
0.13897799
0.17524263
0.22066395
0.27720735
0.34685659
0.43107216
0.52956331
0.63810268
0.74566283
0.83656428
0.90229750
0.94453085
0.96899467
0.98190781
0.98942046
0.99524040
1.00033846
1.00501314
1.00827849
1.00936344
1.00899189
1.00824941
1.00685409
1.00578698
1.00458237
1.00351895
1.00258099
1.00184378
1.00111224
1.00077365
1.00049273
1.00047025
1.00094216
1.00188910
1.00369306
1.00589039
1.00789419
1.00958757
1.01086804
1.01200669
1.01296597
1.01412696
1.01569468
1.01823602
1.02198030
1.02629225
1.03030350
1.03315097
1.03477949
1.03563649
1.03609441
1.03635914
1.03653330
1.03666394
1.03677208
1.03686648
1.03694999
1.03702256
1.03708284
1.03712910
1.03715977
1.03717379
1.03717078
1.03715112
1.03711587
1.03706656
1.03700483
1.03693183
1.03684730
1.03674791
1.03662413
1.03645424
1.03619158
1.03573718
1.03488129
1.03329288
1.03044769
1.02644020
1.02210296
1.01844447
1.01574250
1.01398858
1.01269928
1.01170920
1.01066002
1.00948869
1.00796458
1.00611577
1.00397280
1.00211630
1.00087278
1.00055962
1.00046727
1.00062688
1.00101475
1.00163850
1.00243169
1.00331654
1.00433499
1.00555024
1.00674487
1.00790099
1.00904280
1.00942966
1.00842082
1.00545315
1.00064716
0.99493048
0.98910028
0.98123569
0.96750114
0.94169409
0.89756652
0.82923813
0.73599492
0.62753907
0.51954741
0.42227753
0.33948306
0.27118773
0.21582744
0.17139411
0.13593515
0.10773424
0.08535202
0.06761022
0.05355727
0.04243071
0.03362266
0.02664999
0.02112951
0.01675781
0.01329479
0.01055063
0.00837529
0.00665018
0.00528156
0.00419535
0.00333295
0.00264801
0.00210384
0.00167141
0.00132770
0.00105447
0.00083724
0.00066454
0.00052724
0.00041811
0.00033138
0.00026247
0.00020775
0.00016431
0.00012984
0.00010251
0.00008085
0.00006370
0.00005014
0.00003941
0.00003095
0.00002427
0.00001901
0.00001486
0.00001161
0.00000905
0.00000705
0.00000548
0.00000425
0.00000330
0.00000255
0.00000197
0.00000152
0.00000117
0.00000090
0.00000069
0.00000053
0.00000040
0.00000031
0.00000023
0.00000018
0.00000014
0.00000010
0.00000008
0.00000006
0.00000004
0.00000003
0.00000002
0.00000002
0.00000001
0.00000001
0.00000001
0.00000001
0.00000000
0.00000000
0.00000000
0.00000000
0.00000000
0.00000000
0.00000000
0.00000000
0.00000000
0.00000000
0.00000000
0.00000000
0.00000000
0.00000000
0.00000000
0.00000000
0.00000000
0.00000000
0.00000000
0.00000000
0.00000000
0.00000000
0.00000000
0.00000000
0.00000000
0.00000000
0.00000000
0.00000000
0.00000000
0.00000000
0.00000000
0.00000000
0.00000000
0.00000000
0.00000000
0.00000000
0.00000000
0.00000000
0.00000000
0.00000001
0.00000001
0.00000001
0.00000001
0.00000002
0.00000002
0.00000003
0.00000004
0.00000006
0.00000008
0.00000010
0.00000013
0.00000018
0.00000023
0.00000031
0.00000040
0.00000052
0.00000068
0.00000089
0.00000116
0.00000151
0.00000196
0.00000253
0.00000327
0.00000423
0.00000545
0.00000700
0.00000900
0.00001154
0.00001478
0.00001890
0.00002414
0.00003080
0.00003923
0.00004992
0.00006344
0.00008055
0.00010215
0.00012943
0.00016384
0.00020723
0.00026190
0.00033077
0.00041749
0.00052665
0.00066403
0.00083690
0.00105442
0.00132813
0.00167257
0.00210609
0.00265185
0.00333907
0.00420473
0.00529557
0.00667072
0.00840509
0.01059358
0.01335654
0.01684666
0.02125780
0.02683633
0.03389552
0.04283415
0.05416033
0.06852226
0.08674786
0.10989562
0.13931878
0.17674241
0.22434431
0.28480105
0.36118807
0.45638715
0.57131350
0.70049370
0.82503155
0.91864985
0.97660282
1.00678325
1.01675019
1.01733625
1.01603907
1.01546057
1.01597554
1.01701503
1.01765917
1.01697842
1.01570613
1.01409366
1.01227919
1.01059629
1.00897004
1.00748193
1.00616138
1.00508735
1.00423182
1.00365231
1.00332092
1.00332738
1.00380355
1.00481715
1.00646864
1.00843852
1.01041295
1.01224030
1.01378339
1.01512054
1.01634538
1.01766628
1.01932261
1.02155968
1.02443175
1.02756950
1.03048580
1.03272330
1.03420730
1.03513299
1.03569792
1.03604715
1.03627261
1.03642800
1.03654388
1.03663663
1.03671418
1.03677961
1.03683334
1.03687456
1.03690213
1.03691516
1.03691329
1.03689693
1.03686700
1.03682469
1.03677073
1.03670446
1.03662229
1.03651530
1.03636563
1.03614116
1.03578713
1.03521352
1.03427822
1.03278269
1.03054693
1.02764352
1.02449955
1.02162430
1.01930385
1.01757175
1.01619101
1.01497343
1.01367283
1.01219716
1.01046021
1.00856454
1.00664711
1.00499527
1.00385464
1.00331966
1.00327347
1.00352029
1.00410515
1.00496681
1.00607052
1.00734337
1.00877695
1.01041637
1.01221548
1.01400263
1.01571224
1.01719154
1.01768822
1.01734221
1.01628290
1.01583594
1.01635559
1.01756319
1.01659426
1.00527539
0.97295532
0.91156457
0.81423898
0.68778151
0.55933716
0.44619046
0.35290414
0.27822927
0.21918485
0.17271089
0.13617596
0.10744872
0.08484444
0.06704273
0.05301117
0.04194231
0.03320398
0.02630059
0.02084318
0.01652611
0.01310899
0.01040263
0.00825797
0.00655751
0.00520857
0.00413797
0.00328790
0.00261268
0.00207617
0.00164974
0.00131074
0.00104119
0.00082685
0.00065641
0.00052089
0.00041314
0.00032749
0.00025943
0.00020537
0.00016245
0.00012839
0.00010137
0.00007997
0.00006301
0.00004960
0.00003899
0.00003062
0.00002401
0.00001881
0.00001471
0.00001149
0.00000896
0.00000698
0.00000543
0.00000421
0.00000326
0.00000253
0.00000195
0.00000150
0.00000116
0.00000089
0.00000068
0.00000052
0.00000040
0.00000031
0.00000023
0.00000018
0.00000013
0.00000010
0.00000008
0.00000006
0.00000004
0.00000003
0.00000002
0.00000002
0.00000001
0.00000001
0.00000001
0.00000001
0.00000000
0.00000000
0.00000000
0.00000000
0.00000000
0.00000000
0.00000000
0.00000000
0.00000000
0.00000000
0.00000000
0.00000000
0.00000000
0.00000000
0.00000000
0.00000000
0.00000000
0.00000000
0.00000000
0.00000000
0.00000000
0.00000000
0.00000000
0.00000000
0.00000000
0.00000000
0.00000000
0.00000000
0.00000000
0.00000000
0.00000000
0.00000000
0.00000000
0.00000000
0.00000000
0.00000000
0.00000000
0.00000000
0.00000000
0.00000001
0.00000001
0.00000001
0.00000001
0.00000002
0.00000002
0.00000003
0.00000004
0.00000006
0.00000008
0.00000010
0.00000013
0.00000017
0.00000023
0.00000030
0.00000040
0.00000052
0.00000068
0.00000088
0.00000115
0.00000149
0.00000193
0.00000250
0.00000323
0.00000417
0.00000538
0.00000692
0.00000888
0.00001139
0.00001459
0.00001866
0.00002383
0.00003039
0.00003871
0.00004925
0.00006258
0.00007944
0.00010074
0.00012762
0.00016152
0.00020426
0.00025811
0.00032592
0.00041128
0.00051870
0.00065386
0.00082389
0.00103779
0.00130687
0.00164539
0.00207136
0.00260747
0.00328242
0.00413246
0.00520347
0.00655356
0.00825636
0.01040531
0.01311912
0.01654879
0.02088669
0.02637833
0.03333772
0.04216756
0.05338601
0.06766253
0.08586649
0.10913382
0.13895885
0.17732030
0.22684579
0.29099347
0.37413776
0.48106062
0.61429708
0.76590173
0.90121886
0.98385694
1.02623508
1.04127005
1.04242077
1.03859388
1.03436600
1.03111442
1.02895370
1.02748898
1.02603099
1.02422552
1.02212047
1.01985591
1.01757263
1.01539025
1.01336351
1.01150540
1.00985979
1.00843758
1.00727866
1.00644367
1.00594656
1.00589840
1.00635962
1.00738917
1.00898928
1.01097737
1.01312031
1.01518027
1.01697100
1.01843694
1.01970992
1.02102522
1.02258845
1.02452770
1.02681444
1.02920726
1.03136564
1.03304628
1.03421315
1.03500421
1.03552320
1.03585379
1.03606498
1.03620334
1.03630026
1.03637426
1.03643491
1.03648625
1.03652912
1.03656277
1.03658595
1.03659757
1.03659725
1.03658547
1.03656343
1.03653256
1.03649368
1.03644576
1.03638413
1.03629780
1.03616593
1.03595441
1.03561250
1.03507170
1.03425045
1.03303944
1.03134147
1.02919448
1.02681872
1.02453180
1.02257310
1.02099045
1.01966459
1.01839582
1.01695685
1.01519911
1.01317761
1.01107733
1.00910957
1.00750472
1.00641854
1.00590832
1.00591393
1.00636254
1.00719706
1.00835897
1.00976637
1.01140865
1.01326248
1.01531987
1.01753033
1.01985364
1.02217033
1.02439073
1.02625539
1.02781119
1.02935420
1.03153829
1.03481208
1.03901927
1.04260030
1.04065206
1.02370667
0.97805587
0.89056503
0.75091902
0.60005034
0.46927456
0.36489570
0.28386747
0.22137751
0.17312310
0.13573130
0.10664713
0.08394765
0.06618029
0.05224031
0.04128176
0.03265288
0.02584901
0.02047777
0.01623309
0.01287558
0.01021760
0.00811183
0.00644240
0.00511808
0.00406694
0.00323221
0.00256905
0.00204200
0.00162299
0.00128980
0.00102481
0.00081404
0.00064639
0.00051304
0.00040700
0.00032269
0.00025568
0.00020244
0.00016016
0.00012660
0.00009997
0.00007887
0.00006216
0.00004893
0.00003848
0.00003022
0.00002370
0.00001856
0.00001452
0.00001134
0.00000885
0.00000689
0.00000536
0.00000416
0.00000322
0.00000249
0.00000193
0.00000149
0.00000114
0.00000088
0.00000067
0.00000052
0.00000040
0.00000030
0.00000023
0.00000017
0.00000013
0.00000010
0.00000008
0.00000006
0.00000004
0.00000003
0.00000002
0.00000002
0.00000001
0.00000001
0.00000001
0.00000001
0.00000000
0.00000000
0.00000000
0.00000000
0.00000000
0.00000000
0.00000000
0.00000000
0.00000000
0.00000000
0.00000000
0.00000000
0.00000000
0.00000000
0.00000000
0.00000000
0.00000000
0.00000000
0.00000000
0.00000000
0.00000000
0.00000000
0.00000000
0.00000000
0.00000000
0.00000000
0.00000000
0.00000000
0.00000000
0.00000000
0.00000000
0.00000000
0.00000000
0.00000000
0.00000000
0.00000000
0.00000000
0.00000000
0.00000000
0.00000001
0.00000001
0.00000001
0.00000001
0.00000002
0.00000002
0.00000003
0.00000004
0.00000006
0.00000007
0.00000010
0.00000013
0.00000017
0.00000023
0.00000030
0.00000039
0.00000051
0.00000067
0.00000087
0.00000113
0.00000147
0.00000190
0.00000246
0.00000319
0.00000411
0.00000530
0.00000681
0.00000875
0.00001122
0.00001436
0.00001837
0.00002345
0.00002991
0.00003809
0.00004846
0.00006157
0.00007814
0.00009907
0.00012548
0.00015879
0.00020076
0.00025362
0.00032018
0.00040394
0.00050932
0.00064186
0.00080855
0.00101816
0.00128177
0.00161329
0.00203031
0.00255500
0.00321536
0.00404682
0.00509416
0.00641419
0.00807890
0.01017979
0.01283324
0.01618762
0.02043245
0.02581046
0.03263353
0.04130401
0.05234350
0.06643243
0.08446532
0.10762940
0.13751841
0.17629854
0.22694795
0.29356922
0.38168332
0.49787241
0.64636114
0.81483568
0.94924302
1.01910219
1.04972130
1.05842571
1.05735799
1.05287696
1.04791287
1.04352108
1.03988033
1.03678514
1.03389538
1.03101491
1.02809982
1.02521682
1.02244476
1.01984299
1.01743557
1.01522727
1.01322946
1.01146514
1.00998339
1.00885309
1.00814778
1.00795827
1.00835962
1.00941480
1.01111913
1.01336168
1.01590648
1.01841111
1.02049325
1.02197280
1.02308334
1.02418588
1.02553124
1.02721629
1.02916468
1.03113198
1.03277909
1.03386821
1.03461309
1.03516265
1.03554334
1.03577783
1.03591641
1.03599621
1.03604591
1.03608269
1.03611477
1.03614482
1.03617262
1.03619643
1.03621414
1.03622405
1.03622554
1.03621934
1.03620739
1.03619219
1.03617585
1.03615871
1.03613758
1.03610272
1.03603380
1.03589748
1.03564686
1.03523170
1.03463165
1.03380963
1.03260821
1.03100976
1.02909345
1.02718708
1.02553209
1.02420851
1.02312484
1.02203206
1.02056059
1.01846520
1.01596174
1.01343900
1.01120580
1.00949419
1.00841267
1.00797330
1.00812877
1.00880614
1.00992377
1.01140027
1.01316340
1.01516390
1.01738445
1.01981615
1.02245435
1.02527770
1.02822454
1.03121636
1.03417811
1.03714382
1.04030693
1.04400268
1.04840985
1.05336013
1.05760866
1.05811815
1.04806787
1.01389654
0.93923666
0.79783154
0.62985259
0.48468542
0.37164327
0.28601468
0.22125865
0.17199419
0.13424427
0.10512800
0.08254774
0.06495875
0.05120900
0.04042964
0.03195921
0.02529029
0.02003122
0.01587823
0.01259478
0.00999613
0.00793757
0.00630553
0.00501072
0.00398280
0.00316632
0.00251747
0.00200164
0.00159141
0.00126510
0.00100548
0.00079892
0.00063456
0.00050379
0.00039976
0.00031703
0.00025125
0.00019898
0.00015745
0.00012448
0.00009832
0.00007758
0.00006115
0.00004815
0.00003786
0.00002974
0.00002333
0.00001827
0.00001430
0.00001117
0.00000871
0.00000678
0.00000528
0.00000410
0.00000318
0.00000246
0.00000190
0.00000146
0.00000113
0.00000087
0.00000067
0.00000051
0.00000039
0.00000030
0.00000023
0.00000017
0.00000013
0.00000010
0.00000007
0.00000006
0.00000004
0.00000003
0.00000002
0.00000002
0.00000001
0.00000001
0.00000001
0.00000001
0.00000000
0.00000000
0.00000000
0.00000000
0.00000000
0.00000000
0.00000000
0.00000000
0.00000000
0.00000000
0.00000000
0.00000000
0.00000000
0.00000000
0.00000000
0.00000000
0.00000000
0.00000000
0.00000000
0.00000000
0.00000000
0.00000000
0.00000000
0.00000000
0.00000000
0.00000000
0.00000000
0.00000000
0.00000000
0.00000000
0.00000000
0.00000000
0.00000000
0.00000000
0.00000000
0.00000000
0.00000000
0.00000000
0.00000000
0.00000001
0.00000001
0.00000001
0.00000001
0.00000002
0.00000002
0.00000003
0.00000004
0.00000006
0.00000007
0.00000010
0.00000013
0.00000017
0.00000022
0.00000029
0.00000038
0.00000050
0.00000066
0.00000085
0.00000111
0.00000144
0.00000187
0.00000242
0.00000313
0.00000404
0.00000520
0.00000669
0.00000859
0.00001102
0.00001410
0.00001803
0.00002302
0.00002936
0.00003738
0.00004755
0.00006040
0.00007665
0.00009716
0.00012303
0.00015565
0.00019675
0.00024849
0.00031362
0.00039555
0.00049858
0.00062813
0.00079099
0.00099571
0.00125305
0.00157656
0.00198332
0.00249489
0.00313848
0.00394849
0.00496847
0.00625357
0.00787380
0.00991815
0.01249993
0.01576377
0.01989472
0.02513035
0.03177679
0.04023038
0.05100724
0.06478434
0.08245750
0.10522512
0.13471111
0.17314753
0.22364598
0.29056806
0.37990675
0.49902834
0.65285649
0.82747847
0.96161667
1.02950982
1.05939288
1.06825290
1.06772061
1.06365894
1.05861932
1.05366149
1.04909150
1.04488307
1.04091684
1.03710776
1.03344436
1.02997388
1.02674374
1.02377314
1.02104288
1.01851748
1.01618107
1.01405957
1.01222071
1.01075895
1.00977857
1.00938716
1.00968856
1.01077700
1.01270334
1.01541726
1.01870507
1.02197746
1.02454392
1.02584750
1.02647383
1.02713179
1.02817274
1.02968118
1.03152864
1.03337191
1.03467862
1.03514999
1.03525539
1.03549379
1.03571431
1.03580013
1.03581638
1.03579987
1.03577629
1.03575914
1.03575252
1.03575551
1.03576523
1.03577791
1.03578978
1.03579791
1.03580119
1.03580078
1.03579996
1.03580314
1.03581512
1.03583956
1.03587729
1.03592317
1.03596041
1.03595735
1.03586276
1.03562391
1.03528709
1.03484343
1.03427613
1.03314550
1.03138508
1.02962595
1.02819636
1.02721686
1.02660824
1.02602123
1.02470523
1.02207623
1.01875596
1.01548892
1.01276389
1.01083512
1.00973075
1.00940098
1.00976390
1.01072209
1.01217066
1.01400224
1.01612155
1.01846154
1.02099842
1.02375236
1.02676299
1.03005152
1.03359446
1.03733774
1.04122842
1.04526786
1.04953479
1.05414687
1.05911436
1.06408067
1.06793532
1.06787993
1.05757326
1.02426187
0.95138496
0.80950899
0.63535180
0.48515950
0.36950479
0.28284560
0.21789217
0.16882976
0.13144764
0.10274464
0.08056385
0.06333392
0.04989367
0.03937400
0.03111750
0.02462248
0.01950339
0.01546226
0.01226771
0.00973938
0.00773628
0.00614786
0.00488730
0.00388624
0.00309078
0.00245839
0.00195543
0.00155528
0.00123683
0.00098338
0.00078162
0.00062103
0.00049321
0.00039148
0.00031055
0.00024619
0.00019501
0.00015435
0.00012206
0.00009643
0.00007610
0.00006000
0.00004725
0.00003716
0.00002919
0.00002290
0.00001794
0.00001404
0.00001097
0.00000856
0.00000666
0.00000518
0.00000402
0.00000312
0.00000241
0.00000187
0.00000144
0.00000111
0.00000085
0.00000065
0.00000050
0.00000038
0.00000029
0.00000022
0.00000017
0.00000013
0.00000010
0.00000007
0.00000006
0.00000004
0.00000003
0.00000002
0.00000002
0.00000001
0.00000001
0.00000001
0.00000001
0.00000000
0.00000000
0.00000000
0.00000000
0.00000000
0.00000000
0.00000000
0.00000000
0.00000000
0.00000000
0.00000000
0.00000000
0.00000000
0.00000000
0.00000000
0.00000000
0.00000000
0.00000000
0.00000000
0.00000000
0.00000000
0.00000000
0.00000000
0.00000000
0.00000000
0.00000000
0.00000000
0.00000000
0.00000000
0.00000000
0.00000000
0.00000000
0.00000000
0.00000000
0.00000000
0.00000000
0.00000000
0.00000000
0.00000000
0.00000001
0.00000001
0.00000001
0.00000001
0.00000002
0.00000002
0.00000003
0.00000004
0.00000005
0.00000007
0.00000010
0.00000013
0.00000017
0.00000022
0.00000029
0.00000038
0.00000049
0.00000064
0.00000084
0.00000109
0.00000141
0.00000183
0.00000237
0.00000307
0.00000396
0.00000510
0.00000656
0.00000842
0.00001079
0.00001381
0.00001766
0.00002254
0.00002874
0.00003659
0.00004653
0.00005910
0.00007498
0.00009502
0.00012029
0.00015215
0.00019227
0.00024276
0.00030629
0.00038617
0.00048660
0.00061281
0.00077139
0.00097064
0.00122098
0.00153552
0.00193081
0.00242768
0.00305245
0.00383835
0.00482744
0.00607301
0.00764264
0.00962226
0.01212132
0.01527952
0.01927576
0.02433982
0.03076806
0.03894457
0.04937002
0.06270169
0.07980979
0.10185806
0.13042069
0.16765295
0.21653486
0.28119394
0.36719720
0.48119962
0.62779097
0.79637333
0.93757850
1.01641175
1.05673779
1.07187702
1.07438624
1.07162975
1.06696230
1.06177884
1.05661259
1.05163311
1.04683457
1.04223310
1.03789997
1.03390814
1.03030267
1.02706664
1.02411570
1.02133906
1.01867928
1.01617248
1.01392067
1.01205941
1.01072796
1.01005961
1.01019060
1.01126820
1.01344068
1.01685940
1.02123286
1.02578523
1.02934002
1.03018197
1.02978615
1.02970443
1.03038348
1.03184325
1.03385106
1.03588743
1.03691551
1.03664728
1.03635726
1.03613166
1.03603573
1.03591316
1.03574581
1.03559537
1.03547740
1.03539418
1.03534268
1.03531604
1.03530714
1.03530945
1.03531641
1.03532319
1.03532779
1.03533202
1.03534133
1.03536262
1.03540475
1.03547715
1.03558674
1.03573873
1.03592466
1.03612980
1.03630684
1.03626112
1.03617531
1.03658505
1.03644887
1.03562244
1.03367159
1.03176521
1.03043701
1.02986063
1.03002998
1.03044719
1.02957594
1.02588348
1.02128637
1.01690189
1.01350020
1.01131967
1.01023307
1.01007480
1.01071472
1.01202416
1.01386995
1.01610975
1.01860632
1.02125694
1.02403127
1.02699708
1.03027482
1.03395012
1.03803146
1.04246324
1.04715652
1.05203178
1.05706582
1.06224407
1.06739581
1.07193418
1.07431032
1.07087617
1.05385392
1.00978879
0.92573162
0.77818674
0.61069089
0.46772218
0.35705260
0.27365220
0.21091088
0.16343320
0.12723487
0.09943962
0.07796585
0.06129105
0.04828816
0.03811336
0.03012864
0.02384756
0.01889666
0.01498755
0.01189650
0.00944922
0.00750954
0.00597071
0.00474889
0.00377809
0.00300628
0.00239235
0.00190381
0.00151492
0.00120527
0.00095869
0.00076231
0.00060592
0.00048138
0.00038223
0.00030332
0.00024052
0.00019058
0.00015089
0.00011935
0.00009431
0.00007445
0.00005871
0.00004624
0.00003638
0.00002858
0.00002243
0.00001757
0.00001375
0.00001074
0.00000838
0.00000653
0.00000508
0.00000394
0.00000306
0.00000237
0.00000183
0.00000141
0.00000109
0.00000084
0.00000064
0.00000049
0.00000038
0.00000029
0.00000022
0.00000017
0.00000013
0.00000010
0.00000007
0.00000005
0.00000004
0.00000003
0.00000002
0.00000002
0.00000001
0.00000001
0.00000001
0.00000001
0.00000000
0.00000000
0.00000000
0.00000000
0.00000000
0.00000000
0.00000000
0.00000000
0.00000000
0.00000000
0.00000000
0.00000000
0.00000000
0.00000000
0.00000000
0.00000000
0.00000000
0.00000000
0.00000000
0.00000000
0.00000000
0.00000000
0.00000000
0.00000000
0.00000000
0.00000000
0.00000000
0.00000000
0.00000000
0.00000000
0.00000000
0.00000000
0.00000000
0.00000000
0.00000000
0.00000000
0.00000000
0.00000000
0.00000000
0.00000001
0.00000001
0.00000001
0.00000001
0.00000002
0.00000002
0.00000003