# vtk DataFile Version 3.0
Concentration output
ASCII
DATASET STRUCTURED_POINTS
DIMENSIONS 298 298 1
ORIGIN 0 0 0
SPACING 0.03 0.03 1.0
POINT_DATA 88804
SCALARS Variable float 1
LOOKUP_TABLE default
0.00003362
0.00003546
0.00003923
0.00004515
0.00005354
0.00006487
0.00007976
0.00009905
0.00012380
0.00015538
0.00019555
0.00024654
0.00031119
0.00039311
0.00049684
0.00062817
0.00079442
0.00100483
0.00127112
0.00160808
0.00203443
0.00257375
0.00325585
0.00411827
0.00520826
0.00658521
0.00832364
0.01051679
0.01328103
0.01676110
0.02113614
0.02662673
0.03350245
0.04208989
0.05278002
0.06603376
0.08238351
0.10242732
0.12681087
0.15619141
0.19117641
0.23223091
0.27955188
0.33291897
0.39154848
0.45400525
0.51824474
0.58184678
0.64243601
0.69813970
0.74785486
0.79120405
0.82831549
0.85955592
0.88543638
0.90657647
0.92365437
0.93734135
0.94825942
0.95694263
0.96384679
0.96934050
0.97372207
0.97723018
0.98005482
0.98235445
0.98427141
0.98593598
0.98746626
0.98897968
0.99057878
0.99234403
0.99431417
0.99646876
0.99872836
1.00095556
1.00299764
1.00472792
1.00608681
1.00707834
1.00774248
1.00812937
1.00829625
1.00829051
1.00815958
1.00793339
1.00763683
1.00729354
1.00691598
1.00651828
1.00611485
1.00571017
1.00530924
1.00491575
1.00453557
1.00416677
1.00380845
1.00345716
1.00310868
1.00275343
1.00238632
1.00200504
1.00162241
1.00125469
1.00095749
1.00080439
1.00087327
1.00121659
1.00175191
1.00237917
1.00296354
1.00344524
1.00379084
1.00398633
1.00403183
1.00389204
1.00355086
1.00296218
1.00203445
1.00068843
0.99883217
0.99642525
0.99362149
0.99089059
0.98917159
0.98958307
0.99240665
0.99685315
1.00188838
1.00677109
1.01111391
1.01473286
1.01750097
1.01956999
1.02213420
1.02857715
1.03549783
1.04100405
1.04491623
1.04744870
1.04885962
1.04940274
1.04931627
1.04881621
1.04809147
1.04730015
1.04656795
1.04598863
1.04562569
1.04551461
1.04566465
1.04605973
1.04665821
1.04739173
1.04816376
1.04884849
1.04929109
1.04930957
1.04869855
1.04723382
1.04467755
1.04077609
1.03530442
1.02847210
1.02222760
1.01956354
1.01764607
1.01492989
1.01130979
1.00688647
1.00184951
0.99655630
0.99181987
0.98886622
0.98866370
0.99071010
0.99370977
0.99665919
0.99910757
1.00093969
1.00225479
1.00313309
1.00370588
1.00403228
1.00414315
1.00408444
1.00388223
1.00353085
1.00304696
1.00246878
1.00184471
1.00128387
1.00090238
1.00078573
1.00091449
1.00119799
1.00155838
1.00193953
1.00231581
1.00268055
1.00303294
1.00338070
1.00372929
1.00407849
1.00443757
1.00481433
1.00520764
1.00561444
1.00602979
1.00644594
1.00685655
1.00724401
1.00759473
1.00789459
1.00812411
1.00825942
1.00827069
1.00811329
1.00774190
1.00709840
1.00612456
1.00478115
1.00306537
1.00103280
0.99880489
0.99653723
0.99437134
0.99238450
0.99059900
0.98897928
0.98744949
0.98590294
0.98421623
0.98226100
0.97990526
0.97700759
0.97340981
0.96891065
0.96326458
0.95616664
0.94723665
0.93601583
0.92195964
0.90444048
0.88278658
0.85631277
0.82440557
0.78656574
0.74244676
0.69197901
0.63560557
0.57452286
0.51069355
0.44652388
0.38440775
0.32632704
0.27363889
0.22705352
0.18673286
0.15243971
0.12368527
0.09985133
0.08027893
0.06432637
0.05140269
0.04098388
0.03261756
0.02592084
0.02057440
0.01631492
0.01292720
0.01023655
0.00810192
0.00640994
0.00506980
0.00400897
0.00316961
0.00250575
0.00198083
0.00156587
0.00123790
0.00097871
0.00077392
0.00061212
0.00048432
0.00038340
0.00030375
0.00024092
0.00019143
0.00015252
0.00012204
0.00009828
0.00007993
0.00006597
0.00005563
0.00004834
0.00004369
0.00004143
0.00003355
0.00003539
0.00003915
0.00004506
0.00005343
0.00006474
0.00007960
0.00009884
0.00012353
0.00015504
0.00019512
0.00024600
0.00031051
0.00039224
0.00049574
0.00062678
0.00079266
0.00100262
0.00126835
0.00160462
0.00203012
0.00256845
0.00324936
0.00411042
0.00519890
0.00657429
0.00831126
0.01050339
0.01326760
0.01674957
0.02113001
0.02663197
0.03352902
0.04215392
0.05290713
0.06626394
0.08277798
0.10307794
0.12785222
0.15781488
0.19364377
0.23588180
0.28479512
0.34019280
0.40123410
0.46629279
0.53297829
0.59844064
0.65996513
0.71557441
0.76436013
0.80628302
0.84172769
0.87121226
0.89534253
0.91481535
0.93038338
0.94276443
0.95258288
0.96036198
0.96653184
0.97144466
0.97536110
0.97849283
0.98101419
0.98306127
0.98475992
0.98623299
0.98759284
0.98895942
0.99045035
0.99215526
0.99413177
0.99635580
0.99874283
1.00111223
1.00328271
1.00507394
1.00643854
1.00739382
1.00800824
1.00834359
1.00846514
1.00841851
1.00827034
1.00802796
1.00771015
1.00735019
1.00695893
1.00654502
1.00614048
1.00574083
1.00534183
1.00494108
1.00456526
1.00419311
1.00383907
1.00349614
1.00314989
1.00280360
1.00243403
1.00203443
1.00162597
1.00120744
1.00083486
1.00060342
1.00060628
1.00102690
1.00166295
1.00236569
1.00302463
1.00354192
1.00390565
1.00409835
1.00417984
1.00407965
1.00374349
1.00324494
1.00240361
1.00113884
0.99933043
0.99677786
0.99361514
0.99019339
0.98769206
0.98799231
0.99143598
0.99666018
1.00222777
1.00746961
1.01197151
1.01574560
1.01855737
1.02062887
1.02375636
1.03058027
1.03725242
1.04237189
1.04597686
1.04827759
1.04950671
1.04990285
1.04969539
1.04909567
1.04829003
1.04743482
1.04665434
1.04604102
1.04565724
1.04553766
1.04569113
1.04610166
1.04672811
1.04750303
1.04833102
1.04908772
1.04962013
1.04974916
1.04927439
1.04798097
1.04564751
1.04205154
1.03697337
1.03038765
1.02331740
1.02076682
1.01876115
1.01598997
1.01221626
1.00760292
1.00223621
0.99629096
0.99061255
0.98683738
0.98694056
0.98998802
0.99375351
0.99707650
0.99960290
1.00137101
1.00260737
1.00341753
1.00392247
1.00421033
1.00428313
1.00419480
1.00403238
1.00363163
1.00311902
1.00250777
1.00178774
1.00112378
1.00067355
1.00056107
1.00078730
1.00114904
1.00155586
1.00196161
1.00235446
1.00271803
1.00306759
1.00341049
1.00376400
1.00410723
1.00445411
1.00482872
1.00522755
1.00564523
1.00606134
1.00647892
1.00690693
1.00730893
1.00766894
1.00798460
1.00823089
1.00839579
1.00844680
1.00833636
1.00801855
1.00742142
1.00647754
1.00513425
1.00336470
1.00121143
0.99883356
0.99643602
0.99420446
0.99221314
0.99048360
0.98897453
0.98758891
0.98621630
0.98472782
0.98299511
0.98090040
0.97831439
0.97509416
0.97107682
0.96602701
0.95967501
0.95166758
0.94157137
0.92884807
0.91285528
0.89288200
0.86816827
0.83801690
0.80183397
0.75909927
0.70947350
0.65307207
0.59093384
0.52515035
0.45849328
0.39378255
0.33332867
0.27866229
0.23053695
0.18907841
0.15397768
0.12466834
0.10046315
0.08064812
0.06454040
0.05151970
0.04104173
0.03264047
0.02592400
0.02056715
0.01630287
0.01291358
0.01022315
0.00808963
0.00639915
0.00506059
0.00400126
0.00316325
0.00250055
0.00197662
0.00156249
0.00123519
0.00097656
0.00077221
0.00061077
0.00048325
0.00038256
0.00030308
0.00024040
0.00019102
0.00015220
0.00012178
0.00009807
0.00007976
0.00006583
0.00005552
0.00004824
0.00004360
0.00004135
0.00003342
0.00003525
0.00003899
0.00004488
0.00005321
0.00006447
0.00007926
0.00009842
0.00012300
0.00015437
0.00019427
0.00024492
0.00030914
0.00039050
0.00049354
0.00062400
0.00078915
0.00099820
0.00126280
0.00159768
0.00202149
0.00255777
0.00323628
0.00409455
0.00517992
0.00655201
0.00828583
0.01047553
0.01323908
0.01672394
0.02111374
0.02663631
0.03357279
0.04226782
0.05314025
0.06669334
0.08352252
0.10431745
0.12985288
0.16095989
0.19846518
0.24308256
0.29523948
0.35482999
0.42091661
0.49146061
0.56328145
0.63254711
0.69579887
0.75092873
0.79755696
0.83637278
0.86835385
0.89427137
0.91479969
0.93089484
0.94342701
0.95323997
0.96091323
0.96692546
0.97166852
0.97546017
0.97848211
0.98091854
0.98284755
0.98443849
0.98572302
0.98682358
0.98783475
0.98889487
0.99014783
0.99173722
0.99371173
0.99608912
0.99874775
1.00144104
1.00390140
1.00579338
1.00721057
1.00804984
1.00854456
1.00876647
1.00881495
1.00870571
1.00850017
1.00822944
1.00787971
1.00748178
1.00708910
1.00660870
1.00617525
1.00578974
1.00541501
1.00502922
1.00461217
1.00427484
1.00391739
1.00360131
1.00324620
1.00292700
1.00256350
1.00212920
1.00165911
1.00112804
1.00056945
1.00017398
1.00001520
1.00063387
1.00160993
1.00238238
1.00326977
1.00362881
1.00406796
1.00427210
1.00433040
1.00426573
1.00417546
1.00375697
1.00309522
1.00196642
1.00040185
0.99773622
0.99433280
0.98997354
0.98622832
0.98644527
0.99086009
0.99720393
1.00356865
1.00907205
1.01379704
1.01786711
1.02119770
1.02398961
1.02866058
1.03492993
1.04056350
1.04490165
1.04794561
1.04982026
1.05071204
1.05083191
1.05039521
1.04960606
1.04864661
1.04767022
1.04679842
1.04612103
1.04569808
1.04556249
1.04572231
1.04616172
1.04684073
1.04769376
1.04862775
1.04952104
1.05022392
1.05056197
1.05034283
1.04936650
1.04743954
1.04439359
1.04010378
1.03459500
1.02857287
1.02425682
1.02142766
1.01830906
1.01420114
1.00926669
1.00359930
0.99677632
0.98979754
0.98465516
0.98515643
0.98964986
0.99447797
0.99821497
1.00060958
1.00231807
1.00319382
1.00394399
1.00434388
1.00450494
1.00450375
1.00446677
1.00431550
1.00389718
1.00332483
1.00258311
1.00174286
1.00075202
1.00017073
1.00008396
1.00057421
1.00106676
1.00157471
1.00203010
1.00243817
1.00282945
1.00315705
1.00349535
1.00381875
1.00417728
1.00449082
1.00488990
1.00528602
1.00571900
1.00613496
1.00655572
1.00700868
1.00740002
1.00779642
1.00813007
1.00842788
1.00861632
1.00878346
1.00878862
1.00856644
1.00807776
1.00718229
1.00589672
1.00401503
1.00158202
0.99886888
0.99619224
0.99381953
0.99182655
0.99020983
0.98892346
0.98784574
0.98680727
0.98570005
0.98440011
0.98280136
0.98081501
0.97830577
0.97521343
0.97131381
0.96640430
0.96016475
0.95227429
0.94219973
0.92929702
0.91275457
0.89163174
0.86509156
0.83234787
0.79261714
0.74498373
0.68879918
0.62467358
0.55487844
0.48298809
0.41280958
0.34740046
0.28865535
0.23739875
0.19365633
0.15695368
0.12655485
0.10162731
0.08134391
0.06493889
0.05173361
0.04114398
0.03267739
0.02592449
0.02054886
0.01627631
0.01288477
0.01019534
0.00806443
0.00637718
0.00504192
0.00398568
0.00315044
0.00249011
0.00196818
0.00155571
0.00122977
0.00097224
0.00076878
0.00060805
0.00048111
0.00038087
0.00030175
0.00023934
0.00019019
0.00015154
0.00012126
0.00009766
0.00007943
0.00006556
0.00005529
0.00004805
0.00004343
0.00004118
0.00003323
0.00003504
0.00003876
0.00004460
0.00005289
0.00006407
0.00007877
0.00009780
0.00012222
0.00015337
0.00019301
0.00024331
0.00030710
0.00038791
0.00049025
0.00061983
0.00078388
0.00099156
0.00125445
0.00158723
0.00200846
0.00254163
0.00321642
0.00407035
0.00515081
0.00651759
0.00824607
0.01043119
0.01319230
0.01667925
0.02107968
0.02662794
0.03361568
0.04240416
0.05343820
0.06726102
0.08452871
0.10602106
0.13264351
0.16540985
0.20538863
0.25358737
0.31073556
0.37693004
0.45113112
0.53061187
0.61071905
0.68576081
0.75106234
0.80470883
0.84738786
0.88124406
0.90780928
0.92818185
0.94312426
0.95399348
0.96194720
0.96801211
0.97263044
0.97603648
0.97884221
0.98112629
0.98288365
0.98433529
0.98550305
0.98641614
0.98709487
0.98772861
0.98829530
0.98887566
0.98970564
0.99108904
0.99306360
0.99568821
0.99873318
1.00197117
1.00498201
1.00701641
1.00827942
1.00897469
1.00942972
1.00938962
1.00927438
1.00912345
1.00885305
1.00849300
1.00818353
1.00764569
1.00730748
1.00682383
1.00632914
1.00588480
1.00547499
1.00510137
1.00477859
1.00433001
1.00406868
1.00377976
1.00336206
1.00316708
1.00285328
1.00232627
1.00178063
1.00130952
1.00047943
0.99988090
0.99962822
1.00042510
1.00172684
1.00259550
1.00334653
1.00384863
1.00432237
1.00453139
1.00469467
1.00462114
1.00456716
1.00448131
1.00391829
1.00306733
1.00181451
0.99999122
0.99735257
0.99463733
0.99248056
0.99301732
0.99669424
1.00191314
1.00736768
1.01271026
1.01740211
1.02222379
1.02634204
1.03062619
1.03522509
1.04027769
1.04472750
1.04817700
1.05053725
1.05186766
1.05231143
1.05205631
1.05130493
1.05025471
1.04908360
1.04794126
1.04694532
1.04618142
1.04570583
1.04554869
1.04571674
1.04619457
1.04694416
1.04790301
1.04898179
1.05006265
1.05099987
1.05162396
1.05175026
1.05119252
1.04978199
1.04739400
1.04398567
1.03965034
1.03479020
1.03025981
1.02633640
1.02232088
1.01767368
1.01292953
1.00748788
1.00162896
0.99614935
0.99236513
0.99211990
0.99474062
0.99780195
1.00043294
1.00218184
1.00330960
1.00409686
1.00444202
1.00469416
1.00471772
1.00481929
1.00458880
1.00442376
1.00397182
1.00343477
1.00275514
1.00184211
1.00065324
0.99962971
0.99984324
1.00039224
1.00109904
1.00178216
1.00232048
1.00258949
1.00311433
1.00340280
1.00371101
1.00405568
1.00439957
1.00476058
1.00511627
1.00540167
1.00583621
1.00635917
1.00669028
1.00718437
1.00759891
1.00800112
1.00831685
1.00877556
1.00896052
1.00929072
1.00942610
1.00931885
1.00898017
1.00816900
1.00710633
1.00511247
1.00226996
0.99892817
0.99574427
0.99318946
0.99125540
0.98986049
0.98889582
0.98824464
0.98773621
0.98714796
0.98645984
0.98547715
0.98430413
0.98282374
0.98106214
0.97866804
0.97581648
0.97215452
0.96736928
0.96120773
0.95293387
0.94170488
0.92619946
0.90518735
0.87779862
0.84303119
0.79907215
0.74403885
0.67735845
0.60139886
0.52103469
0.44196095
0.36859830
0.30344891
0.24738751
0.20021679
0.16115619
0.12918102
0.10322384
0.08228168
0.06546367
0.05200521
0.04126455
0.03271115
0.02591111
0.02051228
0.01623057
0.01283777
0.01015123
0.00802511
0.00634326
0.00501333
0.00396196
0.00313099
0.00247432
0.00195545
0.00154550
0.00122163
0.00096576
0.00076364
0.00060399
0.00047790
0.00037833
0.00029975
0.00023777
0.00018895
0.00015056
0.00012048
0.00009704
0.00007893
0.00006516
0.00005496
0.00004776
0.00004317
0.00004094
0.00003297
0.00003476
0.00003845
0.00004425
0.00005246
0.00006354
0.00007811
0.00009697
0.00012117
0.00015205
0.00019132
0.00024118
0.00030438
0.00038446
0.00048587
0.00061428
0.00077686
0.00098269
0.00124329
0.00157323
0.00199096
0.00251987
0.00318954
0.00403742
0.00511090
0.00646991
0.00819023
0.01036758
0.01312288
0.01660866
0.02101715
0.02659033
0.03363225
0.04252403
0.05374196
0.06787849
0.08566583
0.10799981
0.13595930
0.17081036
0.21397350
0.26691288
0.33087829
0.40639090
0.49237776
0.58500438
0.67692847
0.75913209
0.82565973
0.87586209
0.91231825
0.93922410
0.95850212
0.97123612
0.97810073
0.98215987
0.98443202
0.98571588
0.98694265
0.98735566
0.98785032
0.98834861
0.98888978
0.98913945
0.98931843
0.98941423
0.98931201
0.98962566
0.98932475
0.98949520
0.99014430
0.99097549
0.99279698
0.99569660
0.99926307
1.00306453
1.00652456
1.00860323
1.00956999
1.00995341
1.01027651
1.01004412
1.00970656
1.00958901
1.00926379
1.00885780
1.00847939
1.00806951
1.00769815
1.00725490
1.00670269
1.00637158
1.00591870
1.00547826
1.00513367
1.00483291
1.00449970
1.00426628
1.00402247
1.00360386
1.00344712
1.00284820
1.00247008
1.00205134
1.00139949
1.00086279
1.00085213
1.00147283
1.00223350
1.00296392
1.00357879
1.00399965
1.00432671
1.00457101
1.00476847
1.00480740
1.00489150
1.00479671
1.00459231
1.00427021
1.00360922
1.00272728
1.00151169
1.00051467
1.00015493
1.00137771
1.00445495
1.00877487
1.01369343
1.01859889
1.02342985
1.02821231
1.03281272
1.03719495
1.04149807
1.04562554
1.04912960
1.05175699
1.05341939
1.05415487
1.05408849
1.05339560
1.05227244
1.05091311
1.04949274
1.04815717
1.04701870
1.04615691
1.04562234
1.04544094
1.04561762
1.04613776
1.04696650
1.04804622
1.04929303
1.05059419
1.05180813
1.05276901
1.05329674
1.05321271
1.05236105
1.05063554
1.04801214
1.04458454
1.04060104
1.03644605
1.03231230
1.02790336
1.02325009
1.01854875
1.01355262
1.00861702
1.00419793
1.00114057
1.00004619
1.00056029
1.00182882
1.00297579
1.00393525
1.00448262
1.00478957
1.00497794
1.00496077
1.00496936
1.00485507
1.00471389
1.00448456
1.00414775
1.00368425
1.00309734
1.00234617
1.00155805
1.00097049
1.00088950
1.00137791
1.00181157
1.00249739
1.00286116
1.00317691
1.00366602
1.00369573
1.00427652
1.00458853
1.00485793
1.00513696
1.00564376
1.00600446
1.00622069
1.00670053
1.00707171
1.00772352
1.00795099
1.00849925
1.00877503
1.00915245
1.00962783
1.01000786
1.01007274
1.01008961
1.01012952
1.00945882
1.00852803
1.00639287
1.00326125
0.99947063
0.99571120
0.99299083
0.99117759
0.99024386
0.98962769
0.98952648
0.98955199
0.98962349
0.98976754
0.98944157
0.98908521
0.98893434
0.98861635
0.98811195
0.98733159
0.98652807
0.98563714
0.98412101
0.98203568
0.97776112
0.97000379
0.95670043
0.93659639
0.90874714
0.87078287
0.81875501
0.75015962
0.66635100
0.57383177
0.48165070
0.39676580
0.32261415
0.26001852
0.20832718
0.16624157
0.13229188
0.10507172
0.08333664
0.06603048
0.05227841
0.04136651
0.03271766
0.02586821
0.02044731
0.01615918
0.01276845
0.01008818
0.00797001
0.00629637
0.00497417
0.00392970
0.00310469
0.00245305
0.00193836
0.00153183
0.00121074
0.00095712
0.00075680
0.00059858
0.00047363
0.00037497
0.00029710
0.00023569
0.00018730
0.00014926
0.00011945
0.00009622
0.00007827
0.00006462
0.00005451
0.00004738
0.00004283
0.00004062
0.00003264
0.00003442
0.00003807
0.00004380
0.00005192
0.00006288
0.00007729
0.00009594
0.00011987
0.00015040
0.00018923
0.00023852
0.00030100
0.00038016
0.00048042
0.00060736
0.00076809
0.00097161
0.00122930
0.00155563
0.00196890
0.00249233
0.00315536
0.00399528
0.00505941
0.00640772
0.00811625
0.01028145
0.01302566
0.01650403
0.02091343
0.02650368
0.03359176
0.04257995
0.05397856
0.06843440
0.08676561
0.11000285
0.13943400
0.17664339
0.22352226
0.28219423
0.35474008
0.44248202
0.54445851
0.65492197
0.76136795
0.84914870
0.91306099
0.95625005
0.98402143
1.00165921
1.01118330
1.01370822
1.01163915
1.00820273
1.00523240
1.00273873
1.00104547
0.99962616
0.99853640
0.99756733
0.99707124
0.99655548
0.99610312
0.99566892
0.99509938
0.99468858
0.99451633
0.99448669
0.99467846
0.99546938
0.99686761
0.99914874
1.00188691
1.00480585
1.00723424
1.00900209
1.01003951
1.01061151
1.01080789
1.01077270
1.01054000
1.01035081
1.01006905
1.00966358
1.00929210
1.00891755
1.00848475
1.00805917
1.00766451
1.00724695
1.00686370
1.00645851
1.00615246
1.00582141
1.00546118
1.00516735
1.00484520
1.00457276
1.00422822
1.00386331
1.00349883
1.00300570
1.00263652
1.00232159
1.00227833
1.00256865
1.00300094
1.00346357
1.00386213
1.00418489
1.00444524
1.00466090
1.00485358
1.00501186
1.00516845
1.00531873
1.00545457
1.00556769
1.00561831
1.00564032
1.00568166
1.00597657
1.00684263
1.00867496
1.01162973
1.01551359
1.01998013
1.02470090
1.02949615
1.03426539
1.03883170
1.04312862
1.04708384
1.05056212
1.05333899
1.05525545
1.05625921
1.05639886
1.05580093
1.05464149
1.05311853
1.05142780
1.04974398
1.04820892
1.04692763
1.04597063
1.04537990
1.04517525
1.04535903
1.04591806
1.04682256
1.04802243
1.04944199
1.05097541
1.05248531
1.05380725
1.05476100
1.05516788
1.05487263
1.05376809
1.05182036
1.04908720
1.04572060
1.04192871
1.03784027
1.03347792
1.02889969
1.02424200
1.01963240
1.01522915
1.01138767
1.00850023
1.00677201
1.00603556
1.00586011
1.00585626
1.00583971
1.00575708
1.00562726
1.00547066
1.00529186
1.00511894
1.00494089
1.00476033
1.00455577
1.00429367
1.00397462
1.00356173
1.00310609
1.00266129
1.00235509
1.00233647
1.00256872
1.00296699
1.00342082
1.00379114
1.00411408
1.00446081
1.00470798
1.00504888
1.00541216
1.00569717
1.00599753
1.00637910
1.00672541
1.00710620
1.00754525
1.00794627
1.00833866
1.00879462
1.00919771
1.00954226
1.00989266
1.01022059
1.01049578
1.01069293
1.01071715
1.01058705
1.01006363
1.00908761
1.00742406
1.00494906
1.00197549
0.99911933
0.99701001
0.99550022
0.99468295
0.99447803
0.99452041
0.99485754
0.99526309
0.99566575
0.99621358
0.99665744
0.99726367
0.99803128
0.99875526
0.99991606
1.00128190
1.00311068
1.00547629
1.00868514
1.01209553
1.01375484
1.01074918
1.00005923
0.98136023
0.95207135
0.90652795
0.84009062
0.74947157
0.64165094
0.53158837
0.43111824
0.34521598
0.27444180
0.21731134
0.17171151
0.13553700
0.10693176
0.08434869
0.06653355
0.05248398
0.04140485
0.03266777
0.02577705
0.02034192
0.01605444
0.01267193
0.01000311
0.00789719
0.00623531
0.00492371
0.00388847
0.00307128
0.00242616
0.00191683
0.00151467
0.00119710
0.00094631
0.00074825
0.00059184
0.00046831
0.00037078
0.00029381
0.00023309
0.00018526
0.00014765
0.00011818
0.00009520
0.00007746
0.00006396
0.00005396
0.00004690
0.00004240
0.00004021
0.00003226
0.00003401
0.00003762
0.00004327
0.00005129
0.00006210
0.00007632
0.00009472
0.00011833
0.00014845
0.00018675
0.00023535
0.00029698
0.00037504
0.00047390
0.00059909
0.00075760
0.00095831
0.00121248
0.00153441
0.00194221
0.00245888
0.00311361
0.00394346
0.00499554
0.00632968
0.00802200
0.01016936
0.01289517
0.01635674
0.02075496
0.02634667
0.03346087
0.04251985
0.05406685
0.06880246
0.08763216
0.11172790
0.14260527
0.18221300
0.23301560
0.29800600
0.38046339
0.48300759
0.60493956
0.73677538
0.85490387
0.93885254
0.99213316
1.02291885
1.03553830
1.03885416
1.03831456
1.03510567
1.03014206
1.02487032
1.02012338
1.01626425
1.01311191
1.01049944
1.00841423
1.00663794
1.00520627
1.00400537
1.00295603
1.00206556
1.00123336
1.00057160
1.00011182
0.99984139
0.99989165
1.00040873
1.00140293
1.00290805
1.00481460
1.00678631
1.00852553
1.00984406
1.01071444
1.01121227
1.01141607
1.01143478
1.01130159
1.01109726
1.01081723
1.01048999
1.01012753
1.00976721
1.00937006
1.00899503
1.00861274
1.00822572
1.00787098
1.00752388
1.00717870
1.00686324
1.00654884
1.00623917
1.00592686
1.00561600
1.00527310
1.00492658
1.00456153
1.00417496
1.00383449
1.00358399
1.00349743
1.00357616
1.00375717
1.00398268
1.00420205
1.00439778
1.00457329
1.00474394
1.00492834
1.00515034
1.00543561
1.00581033
1.00628914
1.00688484
1.00760973
1.00849101
1.00956126
1.01089279
1.01260786
1.01487098
1.01783054
1.02147947
1.02567937
1.03022872
1.03493336
1.03961636
1.04410402
1.04823049
1.05186242
1.05484953
1.05704411
1.05835034
1.05875399
1.05832523
1.05720396
1.05557700
1.05365218
1.05163263
1.04969555
1.04797827
1.04657499
1.04554239
1.04490946
1.04468702
1.04487393
1.04545954
1.04642198
1.04772294
1.04929946
1.05105577
1.05285897
1.05454313
1.05592236
1.05681044
1.05704338
1.05650206
1.05513180
1.05295370
1.05005994
1.04658868
1.04266665
1.03841145
1.03395007
1.02944924
1.02508052
1.02102408
1.01749345
1.01464567
1.01249299
1.01089051
1.00964397
1.00862507
1.00776630
1.00703810
1.00643534
1.00594825
1.00556355
1.00526891
1.00503907
1.00485370
1.00468727
1.00451099
1.00431626
1.00409019
1.00385498
1.00365336
1.00355377
1.00360688
1.00381598
1.00412515
1.00448484
1.00484089
1.00516987
1.00549085
1.00578897
1.00608762
1.00638304
1.00669342
1.00699850
1.00732588
1.00767657
1.00806417
1.00844368
1.00882912
1.00922407
1.00962658
1.01000268
1.01035172
1.01068161
1.01096748
1.01121650
1.01137397
1.01136394
1.01118943
1.01072840
1.00989494
1.00861343
1.00689517
1.00491238
1.00301606
1.00152710
1.00047772
0.99997452
0.99988570
1.00016178
1.00068618
1.00137694
1.00219592
1.00309211
1.00419709
1.00546114
1.00693077
1.00870958
1.01086941
1.01349875
1.01667865
1.02066631
1.02542917
1.03072647
1.03558158
1.03874214
1.03892520
1.03474829
1.02025556
0.98729119
0.93094726
0.84252124
0.72110046
0.58937865
0.46949649
0.36945167
0.28928315
0.22619308
0.17690282
0.13847714
0.10851727
0.08513227
0.06685335
0.05254513
0.04133032
0.03252999
0.02561748
0.02018328
0.01590822
0.01254305
0.00989279
0.00780466
0.00615883
0.00486120
0.00383781
0.00303050
0.00239350
0.00189079
0.00149397
0.00118070
0.00093335
0.00073802
0.00058377
0.00046197
0.00036579
0.00028988
0.00023000
0.00018283
0.00014573
0.00011666
0.00009400
0.00007649
0.00006317
0.00005330
0.00004634
0.00004190
0.00003974
0.00003182
0.00003355
0.00003709
0.00004266
0.00005055
0.00006120
0.00007520
0.00009332
0.00011655
0.00014619
0.00018387
0.00023170
0.00029232
0.00036911
0.00046635
0.00058948
0.00074539
0.00094281
0.00119284
0.00150956
0.00191084
0.00241939
0.00306406
0.00388155
0.00491856
0.00623459
0.00790548
0.01002809
0.01272623
0.01615854
0.02052864
0.02609864
0.03320695
0.04229216
0.05392524
0.06885323
0.08805928
0.11284513
0.14494385
0.18666906
0.24109649
0.31221443
0.40480058
0.52324811
0.66689735
0.81823755
0.93484151
1.00503645
1.04311772
1.05834799
1.06079204
1.05803658
1.05364379
1.04843094
1.04277395
1.03713245
1.03195439
1.02739646
1.02346709
1.02011852
1.01725798
1.01481710
1.01274077
1.01095485
1.00941233
1.00808526
1.00694548
1.00601250
1.00530046
1.00484550
1.00469485
1.00489995
1.00548116
1.00642044
1.00761002
1.00887451
1.01003252
1.01095599
1.01160507
1.01199577
1.01216998
1.01218611
1.01207798
1.01188585
1.01162941
1.01133015
1.01100013
1.01065907
1.01030582
1.00995402
1.00960047
1.00924741
1.00890897
1.00857260
1.00824545
1.00793264
1.00762899
1.00732942
1.00702557
1.00671092
1.00637911
1.00603303
1.00567116
1.00531000
1.00497936
1.00471145
1.00454012
1.00446431
1.00446164
1.00450030
1.00455530
1.00461635
1.00468961
1.00479340
1.00495691
1.00521475
1.00560789
1.00618108
1.00697810
1.00804320
1.00941393
1.01111173
1.01312075
1.01536542
1.01773053
1.02023448
1.02311632
1.02654390
1.03051584
1.03489466
1.03948483
1.04406699
1.04842871
1.05236467
1.05570049
1.05828313
1.05999449
1.06077555
1.06064249
1.05968812
1.05807079
1.05599491
1.05368565
1.05136091
1.04920407
1.04734708
1.04586699
1.04479834
1.04415032
1.04392071
1.04410375
1.04469283
1.04567824
1.04704012
1.04873587
1.05068566
1.05276157
1.05479226
1.05657928
1.05792182
1.05864113
1.05860171
1.05772766
1.05601121
1.05350985
1.05033147
1.04660976
1.04249768
1.03817459
1.03383693
1.02968623
1.02591156
1.02264869
1.01990734
1.01753158
1.01528879
1.01313615
1.01118689
1.00952310
1.00816866
1.00710820
1.00630974
1.00573358
1.00533706
1.00507738
1.00491473
1.00481251
1.00473986
1.00467687
1.00461458
1.00456241
1.00454484
1.00459491
1.00473695
1.00497016
1.00526998
1.00560484
1.00594510
1.00627341
1.00658397
1.00687825
1.00715891
1.00743947
1.00772719
1.00802271
1.00833738
1.00866881
1.00901808
1.00937901
1.00974395
1.01011212
1.01047919
1.01083528
1.01117263
1.01148150
1.01175709
1.01197495
1.01210904
1.01212260
1.01197596
1.01161406
1.01099585
1.01009637
1.00896011
1.00770818
1.00652193
1.00558931
1.00499605
1.00478464
1.00493968
1.00541819
1.00615410
1.00711450
1.00827792
1.00962095
1.01119082
1.01302727
1.01513814
1.01761805
1.02052323
1.02391959
1.02789725
1.03252228
1.03776347
1.04344341
1.04910435
1.05427950
1.05857701
1.06092177
1.05730844
1.04012707
0.99838156
0.92369576
0.80087064
0.64837876
0.50736066
0.39222494
0.30252116
0.23369084
0.18101367
0.14061316
0.10951720
0.08549287
0.06686771
0.05238484
0.04109425
0.03227348
0.02536999
0.01995904
0.01571273
0.01237694
0.00975419
0.00769054
0.00606581
0.00478597
0.00377735
0.00298214
0.00235498
0.00186020
0.00146975
0.00116156
0.00091825
0.00072613
0.00057441
0.00045461
0.00036001
0.00028534
0.00022643
0.00018002
0.00014352
0.00011491
0.00009260
0.00007537
0.00006226
0.00005254
0.00004568
0.00004131
0.00003919
0.00003132
0.00003302
0.00003651
0.00004198
0.00004973
0.00006019
0.00007394
0.00009173
0.00011454
0.00014364
0.00018063
0.00022756
0.00028705
0.00036239
0.00045779
0.00057858
0.00073151
0.00092516
0.00117042
0.00148111
0.00187479
0.00237381
0.00300657
0.00380925
0.00482795
0.00612150
0.00776509
0.00985495
0.01251450
0.01590241
0.02022326
0.02574168
0.03280148
0.04185146
0.05348092
0.06846919
0.08785529
0.11303762
0.14591739
0.18910333
0.24618949
0.32206638
0.42296791
0.55506328
0.71716855
0.87981185
0.98396218
1.04134395
1.06718075
1.07465860
1.07373301
1.06953547
1.06426346
1.05858300
1.05275844
1.04703772
1.04164462
1.03671697
1.03230767
1.02841836
1.02500967
1.02203810
1.01945090
1.01720249
1.01524907
1.01356526
1.01212725
1.01093172
1.00998588
1.00930819
1.00891818
1.00883063
1.00904279
1.00951759
1.01017625
1.01091489
1.01162080
1.01220830
1.01263679
1.01289815
1.01300838
1.01299557
1.01288451
1.01269919
1.01246070
1.01218539
1.01188646
1.01157465
1.01125511
1.01093114
1.01060352
1.01027567
1.00995149
1.00963251
1.00932284
1.00902487
1.00873608
1.00845011
1.00815748
1.00784971
1.00752042
1.00716863
1.00679770
1.00642221
1.00606253
1.00574156
1.00547650
1.00527036
1.00511398
1.00499163
1.00489142
1.00481196
1.00476512
1.00477650
1.00488419
1.00513727
1.00559405
1.00632082
1.00739091
1.00888229
1.01086538
1.01338027
1.01638056
1.01959793
1.02253607
1.02498443
1.02754823
1.03061601
1.03430966
1.03849866
1.04295587
1.04742206
1.05164315
1.05538664
1.05845501
1.06069190
1.06199373
1.06232307
1.06171720
1.06028778
1.05821169
1.05571493
1.05304805
1.05045548
1.04813296
1.04620667
1.04472304
1.04368194
1.04306139
1.04284106
1.04300929
1.04356554
1.04451802
1.04587539
1.04762869
1.04972589
1.05204276
1.05439670
1.05656588
1.05832753
1.05948473
1.05988588
1.05943777
1.05811270
1.05594769
1.05303638
1.04951720
1.04556477
1.04138733
1.03721576
1.03328940
1.02982741
1.02694858
1.02455040
1.02222242
1.01945899
1.01634626
1.01342389
1.01094868
1.00898966
1.00751041
1.00644397
1.00571741
1.00526059
1.00500866
1.00490365
1.00489563
1.00494456
1.00502267
1.00511594
1.00522468
1.00536056
1.00554008
1.00577473
1.00606336
1.00639146
1.00673768
1.00708219
1.00740988
1.00771418
1.00799626
1.00826204
1.00852226
1.00878784
1.00906446
1.00935771
1.00966728
1.00999131
1.01032638
1.01066615
1.01100652
1.01134326
1.01167233
1.01198805
1.01228299
1.01254500
1.01275827
1.01290093
1.01294821
1.01287011
1.01264072
1.01224202
1.01167837
1.01099165
1.01026516
1.00961213
1.00914388
1.00893623
1.00903050
1.00943386
1.01013127
1.01109907
1.01231778
1.01378202
1.01549499
1.01748065
1.01977014
1.02240194
1.02542330
1.02888172
1.03281957
1.03727837
1.04225848
1.04770368
1.05346891
1.05931248
1.06499206
1.07021059
1.07412480
1.07430698
1.06521057
1.03636175
0.97475001
0.86217864
0.69618758
0.53705795
0.40904570
0.31158096
0.23833362
0.18319513
0.14144698
0.10963447
0.08525043
0.06646610
0.05193458
0.04065382
0.03187140
0.02501772
0.01965865
0.01546138
0.01216952
0.00958479
0.00755332
0.00595537
0.00469753
0.00370682
0.00292609
0.00231056
0.00182508
0.00144203
0.00113972
0.00090106
0.00071261
0.00056380
0.00044627
0.00035346
0.00028020
0.00022240
0.00017685
0.00014102
0.00011293
0.00009103
0.00007411
0.00006123
0.00005168
0.00004495
0.00004066
0.00003857
0.00003077
0.00003243
0.00003585
0.00004121
0.00004881
0.00005907
0.00007254
0.00008997
0.00011231
0.00014081
0.00017702
0.00022297
0.00028119
0.00035492
0.00044826
0.00056643
0.00071601
0.00090541
0.00114527
0.00144911
0.00183412
0.00232219
0.00294113
0.00372645
0.00472340
0.00598984
0.00759978