# vtk DataFile Version 3.0
Concentration output
ASCII
DATASET STRUCTURED_POINTS
DIMENSIONS 398 98 1
ORIGIN 0 0 0
SPACING 0.03 0.03 1.0
POINT_DATA 39004
SCALARS Variable float 1
LOOKUP_TABLE default
1.00000000
1.00000000
1.00000000
1.00000000
1.00000000
1.00000000
1.00000000
1.00000000
1.00000000
1.00000000
1.00000000
1.00000000
1.00000000
1.00000000
1.00000000
1.00000000
1.00000000
1.00000000
1.00000000
1.00000000
1.00000000
1.00000000
1.00000000
1.00000000
1.00000000
1.00000000
1.00000000
1.00000000
1.00000000
1.00000000
1.00000000
1.00000000
1.00000000
1.00000000
1.00000000
1.00000000
1.00000000
1.00000000
1.00000000
1.00000000
1.00000000
1.00000000
1.00000000
1.00000000
1.00000000
1.00000000
1.00000000
1.00000000
1.00000000
1.00000000
1.00000000
1.00000000
1.00000000
1.00000000
1.00000000
1.00000000
1.00000000
1.00000000
1.00000000
1.00000000
1.00000000
1.00000000
1.00000000
1.00000000
1.00000000
1.00000000
1.00000000
1.00000000
1.00000000
1.00000000
1.00000000
1.00000000
1.00000000
1.00000000
1.00000000
1.00000000
1.00000000
1.00000000
1.00000000
1.00000000
1.00000000
1.00000000
1.00000000
1.00000000
1.00000000
1.00000000
1.00000000
1.00000000
1.00000000
1.00000000
1.00000000
1.00000000
1.00000000
1.00000000
1.00000000
1.00000000
1.00000000
1.00000000
1.00000000
1.00000000
1.00000000
1.00000000
1.00000000
1.00000000
1.00000000
1.00000000
1.00000000
1.00000000
1.00000000
1.00000000
1.00000000
1.00000000
1.00000000
1.00000000
1.00000000
1.00000000
1.00000000
1.00000000
1.00000000
1.00000000
0.99999998
0.99999981
0.99999851
0.99998873
0.99991738
0.99941668
0.99606513
0.97501695
0.85716305
0.41243686
0.11992591
0.05719617
0.14360846
0.49178927
0.87526662
0.97594324
0.99560759
0.99921066
0.99985913
0.99997468
0.99999394
0.99998933
0.99994483
0.99969471
0.99831826
0.99081760
0.95123597
0.76576593
0.27868697
0.07581977
0.02605447
0.02021845
0.04474057
0.14362228
0.46785519
0.84819542
0.93191616
0.81092850
0.38711496
0.12687461
0.05051226
0.03660376
0.04016548
0.04530808
0.05001604
0.05415334
0.05775470
0.06083627
0.06355681
0.06584070
0.06749868
0.06875079
0.06969427
0.07023085
0.07058487
0.07076156
0.07088473
0.07100452
0.07094488
0.07079855
0.07069022
0.07057999
0.07036695
0.06997797
0.06968163
0.06935882
0.06886312
0.06833660
0.06770676
0.06714139
0.06641034
0.06578865
0.06508242
0.06427437
0.06343183
0.06253800
0.06163341
0.06083006
0.05995447
0.05904496
0.05810222
0.05720002
0.05630385
0.05533543
0.05451686
0.05366704
0.05282056
0.05207494
0.05140543
0.05076965
0.05022188
0.04974236
0.04930882
0.04889912
0.04855054
0.04825325
0.04802250
0.04776857
0.04755276
0.04742884
0.04728463
0.04714975
0.04701445
0.04701238
0.04697582
0.04689610
0.04684049
0.04683475
0.04685438
0.04685745
0.04677430
0.04679682
0.04682693
0.04685938
0.04686299
0.04689861
0.04695139
0.04698076
0.04700978
0.04714778
0.04711201
0.04723437
0.04733467
0.04736356
0.04748228
0.04763519
0.04775720
0.04790052
0.04808345
0.04828719
0.04845891
0.04871689
0.04905931
0.04942264
0.04979643
0.05041196
0.05099636
0.05174832
0.05266870
0.05394190
0.05541302
0.05730781
0.05991729
0.06354843
0.06884664
0.07604677
0.08395826
0.08587342
0.07233245
0.04750245
0.02387699
0.00947654
0.00324699
0.00104355
0.00032377
0.00009835
0.00002933
0.00000860
0.00000249
0.00000071
0.00000020
0.00000006
0.00000002
0.00000000
0.00000000
0.00000000
0.00000000
0.00000000
0.00000000
0.00000000
0.00000000
0.00000000
0.00000000
0.00000000
0.00000000
0.00000000
0.00000000
0.00000000
0.00000000
0.00000000
0.00000000
0.00000000
0.00000000
0.00000000
0.00000000
0.00000000
0.00000000
0.00000000
0.00000000
0.00000000
0.00000000
0.00000000
0.00000000
0.00000000
0.00000000
0.00000000
0.00000000
0.00000000
0.00000000
0.00000000
0.00000000
0.00000000
0.00000000
0.00000000
0.00000000
0.00000000
0.00000000
0.00000000
0.00000000
0.00000000
0.00000000
0.00000000
0.00000000
0.00000000
0.00000000
0.00000000
0.00000000
0.00000000
0.00000000
0.00000000
0.00000000
0.00000000
0.00000000
0.00000000
0.00000000
0.00000000
0.00000000
0.00000000
0.00000000
0.00000000
0.00000000
0.00000000
0.00000000
0.00000000
0.00000000
0.00000000
0.00000000
0.00000000
0.00000000
0.00000000
0.00000000
0.00000000
0.00000000
0.00000000
0.00000000
0.00000000
0.00000000
0.00000000
0.00000000
0.00000000
0.00000000
0.00000000
0.00000000
0.00000000
0.00000000
0.00000000
0.00000000
0.00000000
0.00000000
0.00000000
0.00000000
0.00000000
0.00000000
0.00000000
0.00000000
0.00000000
0.00000000
0.00000000
0.00000000
0.00000000
0.00000000
0.00000000
0.00000000
0.00000000
0.00000000
0.00000000
0.00000000
0.00000000
1.00000000
1.00000000
1.00000000
1.00000000
1.00000000
1.00000000
1.00000000
1.00000000
1.00000000
1.00000000
1.00000000
1.00000000
1.00000000
1.00000000
1.00000000
1.00000000
1.00000000
1.00000000
1.00000000
1.00000000
1.00000000
1.00000000
1.00000000
1.00000000
1.00000000
1.00000000
1.00000000
1.00000000
1.00000000
1.00000000
1.00000000
1.00000000
1.00000000
1.00000000
1.00000000
1.00000000
1.00000000
1.00000000
1.00000000
1.00000000
1.00000000
1.00000000
1.00000000
1.00000000
1.00000000
1.00000000
1.00000000
1.00000000
1.00000000
1.00000000
1.00000000
1.00000000
1.00000000
1.00000000
1.00000000
1.00000000
1.00000000
1.00000000
1.00000000
1.00000000
1.00000000
1.00000000
1.00000000
1.00000000
1.00000000
1.00000000
1.00000000
1.00000000
1.00000000
1.00000000
1.00000000
1.00000000
1.00000000
1.00000000
1.00000000
1.00000000
1.00000000
1.00000000
1.00000000
1.00000000
1.00000000
1.00000000
1.00000000
1.00000000
1.00000000
1.00000000
1.00000000
1.00000000
1.00000000
1.00000000
1.00000000
1.00000000
1.00000000
1.00000000
1.00000000
1.00000000
1.00000000
1.00000000
1.00000000
1.00000000
1.00000000
1.00000000
1.00000000
1.00000000
1.00000000
1.00000000
1.00000000
1.00000000
1.00000000
1.00000000
1.00000000
1.00000000
1.00000000
1.00000000
1.00000000
1.00000000
1.00000000
1.00000000
1.00000000
1.00000000
0.99999999
0.99999993
0.99999947
0.99999587
0.99996911
0.99977799
0.99847950
0.99016572
0.94175010
0.72083294
0.34907944
0.19603597
0.38826856
0.76344544
0.94866163
0.99031599
0.99823687
0.99968223
0.99994294
0.99998947
0.99999723
0.99999530
0.99997688
0.99987258
0.99929706
0.99615122
0.97929722
0.89501295
0.58701248
0.24942750
0.11129787
0.09464708
0.17740815
0.40254738
0.76006258
0.93979625
0.97319310
0.92638053
0.71785050
0.38749567
0.20781839
0.17610262
0.19064086
0.20868411
0.22454852
0.23805502
0.24952246
0.25940892
0.26795885
0.27496354
0.28026483
0.28452658
0.28748779
0.28900091
0.29001409
0.29049703
0.29089678
0.29144453
0.29126930
0.29067973
0.29061825
0.29028263
0.28951563
0.28834898
0.28741704
0.28629440
0.28498285
0.28306888
0.28100778
0.27955658
0.27724042
0.27530140
0.27296936
0.27038726
0.26778576
0.26495459
0.26224816
0.25968371
0.25673479
0.25382155
0.25072641
0.24789736
0.24499189
0.24177449
0.23905800
0.23613575
0.23365969
0.23105097
0.22874552
0.22675625
0.22485897
0.22336669
0.22172817
0.22033082
0.21929145
0.21819111
0.21718060
0.21663818
0.21592510
0.21553986
0.21491485
0.21439568
0.21402855
0.21397675
0.21392796
0.21351884
0.21349875
0.21333663
0.21360735
0.21346636
0.21339149
0.21344023
0.21340512
0.21346372
0.21346858
0.21368824
0.21371684
0.21387148
0.21391210
0.21425370
0.21431158
0.21454658
0.21499930
0.21520203
0.21535665
0.21576310
0.21616150
0.21688220
0.21717498
0.21781845
0.21839218
0.21916833
0.22031384
0.22122916
0.22260759
0.22401704
0.22580048
0.22785810
0.23046179
0.23363364
0.23708523
0.24096496
0.24546304
0.25039959
0.25499576
0.25743313
0.25373029
0.23658076
0.19557224
0.13163446
0.06762946
0.02627604
0.00837656
0.00246909
0.00071122
0.00020336
0.00005768
0.00001624
0.00000454
0.00000126
0.00000035
0.00000010
0.00000003
0.00000001
0.00000000
0.00000000
0.00000000
0.00000000
0.00000000
0.00000000
0.00000000
0.00000000
0.00000000
0.00000000
0.00000000
0.00000000
0.00000000
0.00000000
0.00000000
0.00000000
0.00000000
0.00000000
0.00000000
0.00000000
0.00000000
0.00000000
0.00000000
0.00000000
0.00000000
0.00000000
0.00000000
0.00000000
0.00000000
0.00000000
0.00000000
0.00000000
0.00000000
0.00000000
0.00000000
0.00000000
0.00000000
0.00000000
0.00000000
0.00000000
0.00000000
0.00000000
0.00000000
0.00000000
0.00000000
0.00000000
0.00000000
0.00000000
0.00000000
0.00000000
0.00000000
0.00000000
0.00000000
0.00000000
0.00000000
0.00000000
0.00000000
0.00000000
0.00000000
0.00000000
0.00000000
0.00000000
0.00000000
0.00000000
0.00000000
0.00000000
0.00000000
0.00000000
0.00000000
0.00000000
0.00000000
0.00000000
0.00000000
0.00000000
0.00000000
0.00000000
0.00000000
0.00000000
0.00000000
0.00000000
0.00000000
0.00000000
0.00000000
0.00000000
0.00000000
0.00000000
0.00000000
0.00000000
0.00000000
0.00000000
0.00000000
0.00000000
0.00000000
0.00000000
0.00000000
0.00000000
0.00000000
0.00000000
0.00000000
0.00000000
0.00000000
0.00000000
0.00000000
0.00000000
0.00000000
0.00000000
0.00000000
0.00000000
0.00000000
0.00000000
0.00000000
0.00000000
0.00000000
0.00000000
1.00000000
1.00000000
1.00000000
1.00000000
1.00000000
1.00000000
1.00000000
1.00000000
1.00000000
1.00000000
1.00000000
1.00000000
1.00000000
1.00000000
1.00000000
1.00000000
1.00000000
1.00000000
1.00000000
1.00000000
1.00000000
1.00000000
1.00000000
1.00000000
1.00000000
1.00000000
1.00000000
1.00000000
1.00000000
1.00000000
1.00000000
1.00000000
1.00000000
1.00000000
1.00000000
1.00000000
1.00000000
1.00000000
1.00000000
1.00000000
1.00000000
1.00000000
1.00000000
1.00000000
1.00000000
1.00000000
1.00000000
1.00000000
1.00000000
1.00000000
1.00000000
1.00000000
1.00000000
1.00000000
1.00000000
1.00000000
1.00000000
1.00000000
1.00000000
1.00000000
1.00000000
1.00000000
1.00000000
1.00000000
1.00000000
1.00000000
1.00000000
1.00000000
1.00000000
1.00000000
1.00000000
1.00000000
1.00000000
1.00000000
1.00000000
1.00000000
1.00000000
1.00000000
1.00000000
1.00000000
1.00000000
1.00000000
1.00000000
1.00000000
1.00000000
1.00000000
1.00000000
1.00000000
1.00000000
1.00000000
1.00000000
1.00000000
1.00000000
1.00000000
1.00000000
1.00000000
1.00000000
1.00000000
1.00000000
1.00000000
1.00000000
1.00000000
1.00000000
1.00000000
1.00000000
1.00000000
1.00000000
1.00000000
1.00000000
1.00000000
1.00000000
1.00000000
1.00000000
1.00000000
1.00000000
1.00000000
1.00000000
1.00000000
1.00000000
1.00000000
1.00000000
0.99999999
0.99999990
0.99999916
0.99999350
0.99995188
0.99966301
0.99779106
0.98674177
0.93298072
0.80200183
0.68399866
0.81719464
0.94162667
0.98761319
0.99762162
0.99955628
0.99991722
0.99998382
0.99999576
0.99999788
0.99999779
0.99999338
0.99996627
0.99981804
0.99902196
0.99481977
0.97365273
0.88617878
0.70517768
0.49265121
0.45534053
0.64200178
0.82350416
0.94234179
0.98557160
0.99308431
0.98314476
0.93559290
0.83636832
0.74462051
0.72823256
0.75234236
0.77397834
0.78921195
0.79976912
0.80792259
0.81411084
0.81908168
0.82282180
0.82551929
0.82739762
0.82901847
0.82973918
0.83044907
0.83047770
0.83081563
0.83089509
0.83089842
0.83060564
0.83069403
0.83049395
0.83019011
0.82968960
0.82926659
0.82872207
0.82819786
0.82737052
0.82635623
0.82540175
0.82428538
0.82343042
0.82224338
0.82103514
0.81956578
0.81815791
0.81659551
0.81506853
0.81324618
0.81149135
0.80951494
0.80761971
0.80564191
0.80343624
0.80145541
0.79925355
0.79716592
0.79505195
0.79307752
0.79151817
0.78969421
0.78813902
0.78674775
0.78538460
0.78442553
0.78315371
0.78256642
0.78160936
0.78102586
0.78067175
0.78002556
0.77975010
0.77932305
0.77895928
0.77893726
0.77870708
0.77854683
0.77856948
0.77848630
0.77834445
0.77850984
0.77836598
0.77875025
0.77859399
0.77851340
0.77863719
0.77870521
0.77897002
0.77878772
0.77918047
0.77926625
0.77944051
0.77974469
0.78000243
0.78005945
0.78060851
0.78075855
0.78107676
0.78139717
0.78184177
0.78223870
0.78277504
0.78360511
0.78424140
0.78500284
0.78580756
0.78661731
0.78781865
0.78879554
0.78977829
0.79031754
0.79010759
0.78839423
0.78342828
0.77187468
0.74782814
0.70138591
0.62656996
0.52022663
0.37843566
0.21495953
0.08776551
0.02728901
0.00754503
0.00203027
0.00054519
0.00014634
0.00003923
0.00001051
0.00000281
0.00000075
0.00000020
0.00000005
0.00000001
0.00000000
0.00000000
0.00000000
0.00000000
0.00000000
0.00000000
0.00000000
0.00000000
0.00000000
0.00000000
0.00000000
0.00000000
0.00000000
0.00000000
0.00000000
0.00000000
0.00000000
0.00000000
0.00000000
0.00000000
0.00000000
0.00000000
0.00000000
0.00000000
0.00000000
0.00000000
0.00000000
0.00000000
0.00000000
0.00000000
0.00000000
0.00000000
0.00000000
0.00000000
0.00000000
0.00000000
0.00000000
0.00000000
0.00000000
0.00000000
0.00000000
0.00000000
0.00000000
0.00000000
0.00000000
0.00000000
0.00000000
0.00000000
0.00000000
0.00000000
0.00000000
0.00000000
0.00000000
0.00000000
0.00000000
0.00000000
0.00000000
0.00000000
0.00000000
0.00000000
0.00000000
0.00000000
0.00000000
0.00000000
0.00000000
0.00000000
0.00000000
0.00000000
0.00000000
0.00000000
0.00000000
0.00000000
0.00000000
0.00000000
0.00000000
0.00000000
0.00000000
0.00000000
0.00000000
0.00000000
0.00000000
0.00000000
0.00000000
0.00000000
0.00000000
0.00000000
0.00000000
0.00000000
0.00000000
0.00000000
0.00000000
0.00000000
0.00000000
0.00000000
0.00000000
0.00000000
0.00000000
0.00000000
0.00000000
0.00000000
0.00000000
0.00000000
0.00000000
0.00000000
0.00000000
0.00000000
0.00000000
0.00000000
0.00000000
0.00000000
0.00000000
0.00000000
0.00000000
0.00000000
1.00000000
1.00000000
1.00000000
1.00000000
1.00000000
1.00000000
1.00000000
1.00000000
1.00000000
1.00000000
1.00000000
1.00000000
1.00000000
1.00000000
1.00000000
1.00000000
1.00000000
1.00000000
1.00000000
1.00000000
1.00000000
1.00000000
1.00000000
1.00000000
1.00000000
1.00000000
1.00000000
1.00000000
1.00000000
1.00000000
1.00000000
1.00000000
1.00000000
1.00000000
1.00000000
1.00000000
1.00000000
1.00000000
1.00000000
1.00000000
1.00000000
1.00000000
1.00000000
1.00000000
1.00000000
1.00000000
1.00000000
1.00000000
1.00000000
1.00000000
1.00000000
1.00000000
1.00000000
1.00000000
1.00000000
1.00000000
1.00000000
1.00000000
1.00000000
1.00000000
1.00000000
1.00000000
1.00000000
1.00000000
1.00000000
1.00000000
1.00000000
1.00000000
1.00000000
1.00000000
1.00000000
1.00000000
1.00000000
1.00000000
1.00000000
1.00000000
1.00000000
1.00000000
1.00000000
1.00000000
1.00000000
1.00000000
1.00000000
1.00000000
1.00000000
1.00000000
1.00000000
1.00000000
1.00000000
1.00000000
1.00000000
1.00000000
1.00000000
1.00000000
1.00000000
1.00000000
1.00000000
1.00000000
1.00000000
1.00000000
1.00000000
1.00000000
1.00000000
1.00000000
1.00000000
1.00000000
1.00000000
1.00000000
1.00000000
1.00000000
1.00000000
1.00000000
1.00000000
1.00000000
1.00000000
1.00000000
1.00000000
1.00000000
1.00000000
1.00000000
1.00000000
1.00000000
0.99999998
0.99999985
0.99999881
0.99999105
0.99993686
0.99958662
0.99753804
0.98752836
0.96060522
0.93335852
0.96322401
0.98865797
0.99751585
0.99949676
0.99989606
0.99997243
0.99998563
0.99999030
0.99999253
0.99999457
0.99999530
0.99999122
0.99995936
0.99979241
0.99894449
0.99483551
0.97784994
0.93836191
0.88407540
0.87484407
0.92412186
0.96535610
0.98900174
0.99707296
0.99844366
0.99664019
0.98786466
0.96858953
0.94975734
0.94690482
0.95256676
0.95766509
0.96116308
0.96354502
0.96534044
0.96672638
0.96775704
0.96856648
0.96911489
0.96953936
0.96981855
0.97000789
0.97015244
0.97016317
0.97024682
0.97027609
0.97024389
0.97022970
0.97023837
0.97021598
0.97014174
0.97005244
0.96999257
0.96987073
0.96975198
0.96958495
0.96941757
0.96922611
0.96899202
0.96876788
0.96853966
0.96829307
0.96803822
0.96770423
0.96740573
0.96707435
0.96669680
0.96628016
0.96589821
0.96548287
0.96500462
0.96454792
0.96408321
0.96356513
0.96312178
0.96260971
0.96213296
0.96174969
0.96133474
0.96100654
0.96065606
0.96036772
0.96008943
0.95983745
0.95966211
0.95941950
0.95932361
0.95919548
0.95910457
0.95896903
0.95891897
0.95883031
0.95882159
0.95877201
0.95873401
0.95869210
0.95871473
0.95868574
0.95872614
0.95870857
0.95871565
0.95870922
0.95872351
0.95870713
0.95875193
0.95878293
0.95879428
0.95881529
0.95882034
0.95888813
0.95895717
0.95899184
0.95902224
0.95912023
0.95912369
0.95917317
0.95923075
0.95930665
0.95937507
0.95946351
0.95957532
0.95965573
0.95977375
0.95989465
0.95998705
0.96007861
0.96015648
0.96018604
0.96005872
0.95959486
0.95869842
0.95670979
0.95259665
0.94452381
0.92869426
0.89868370
0.83841184
0.71918925
0.51469636
0.25630456
0.08482752
0.02291682
0.00588028
0.00150411
0.00038628
0.00009950
0.00002568
0.00000663
0.00000171
0.00000044
0.00000011
0.00000003
0.00000001
0.00000000
0.00000000
0.00000000
0.00000000
0.00000000
0.00000000
0.00000000
0.00000000
0.00000000
0.00000000
0.00000000
0.00000000
0.00000000
0.00000000
0.00000000
0.00000000
0.00000000
0.00000000
0.00000000
0.00000000
0.00000000
0.00000000
0.00000000
0.00000000
0.00000000
0.00000000
0.00000000
0.00000000
0.00000000
0.00000000
0.00000000
0.00000000
0.00000000
0.00000000
0.00000000
0.00000000
0.00000000
0.00000000
0.00000000
0.00000000
0.00000000
0.00000000
0.00000000
0.00000000
0.00000000
0.00000000
0.00000000
0.00000000
0.00000000
0.00000000
0.00000000
0.00000000
0.00000000
0.00000000
0.00000000
0.00000000
0.00000000
0.00000000
0.00000000
0.00000000
0.00000000
0.00000000
0.00000000
0.00000000
0.00000000
0.00000000
0.00000000
0.00000000
0.00000000
0.00000000
0.00000000
0.00000000
0.00000000
0.00000000
0.00000000
0.00000000
0.00000000
0.00000000
0.00000000
0.00000000
0.00000000
0.00000000
0.00000000
0.00000000
0.00000000
0.00000000
0.00000000
0.00000000
0.00000000
0.00000000
0.00000000
0.00000000
0.00000000
0.00000000
0.00000000
0.00000000
0.00000000
0.00000000
0.00000000
0.00000000
0.00000000
0.00000000
0.00000000
0.00000000
0.00000000
0.00000000
0.00000000
0.00000000
0.00000000
0.00000000
0.00000000
0.00000000
0.00000000
1.00000000
1.00000000
1.00000000
1.00000000
1.00000000
1.00000000
1.00000000
1.00000000
1.00000000
1.00000000
1.00000000
1.00000000
1.00000000
1.00000000
1.00000000
1.00000000
1.00000000
1.00000000
1.00000000
1.00000000
1.00000000
1.00000000
1.00000000
1.00000000
1.00000000
1.00000000
1.00000000
1.00000000
1.00000000
1.00000000
1.00000000
1.00000000
1.00000000
1.00000000
1.00000000
1.00000000
1.00000000
1.00000000
1.00000000
1.00000000
1.00000000
1.00000000
1.00000000
1.00000000
1.00000000
1.00000000
1.00000000
1.00000000
1.00000000
1.00000000
1.00000000
1.00000000
1.00000000
1.00000000
1.00000000
1.00000000
1.00000000
1.00000000
1.00000000
1.00000000
1.00000000
1.00000000
1.00000000
1.00000000
1.00000000
1.00000000
1.00000000
1.00000000
1.00000000
1.00000000
1.00000000
1.00000000
1.00000000
1.00000000
1.00000000
1.00000000
1.00000000
1.00000000
1.00000000
1.00000000
1.00000000
1.00000000
1.00000000
1.00000000
1.00000000
1.00000000
1.00000000
1.00000000
1.00000000
1.00000000
1.00000000
1.00000000
1.00000000
1.00000000
1.00000000
1.00000000
1.00000000
1.00000000
1.00000000
1.00000000
1.00000000
1.00000000
1.00000000
1.00000000
1.00000000
1.00000000
1.00000000
1.00000000
1.00000000
1.00000000
1.00000000
1.00000000
1.00000000
1.00000000
1.00000000
1.00000000
1.00000000
1.00000000
1.00000000
1.00000000
1.00000000
1.00000000
1.00000000
0.99999997
0.99999979
0.99999843
0.99998890
0.99992747
0.99957141
0.99783552
0.99293903
0.98786193
0.99327311
0.99789841
0.99948755
0.99984913
0.99991505
0.99993797
0.99994532
0.99995115
0.99995973
0.99997166
0.99998267
0.99998829
0.99998576
0.99995585
0.99979620
0.99904703
0.99601327
0.98874314
0.97860887
0.97705753
0.98612531
0.99375880
0.99800616
0.99943068
0.99967226
0.99935672
0.99781960
0.99438396
0.99104294
0.99059741
0.99165298
0.99262866
0.99329443
0.99375459
0.99409344
0.99435368
0.99454924
0.99469981
0.99480544
0.99488781
0.99494073
0.99497402
0.99499759
0.99500408
0.99501754
0.99502019
0.99502185
0.99501951
0.99502331
0.99501573
0.99500760
0.99498711
0.99497571
0.99496310
0.99493614
0.99490980
0.99488270
0.99484858
0.99480865
0.99476544
0.99472972
0.99468417
0.99463511
0.99458093
0.99452209
0.99445807
0.99439182
0.99431603
0.99423639
0.99416031
0.99406708
0.99397639
0.99389229
0.99378450
0.99370207
0.99360151
0.99350952
0.99343247
0.99334428
0.99327946
0.99321252
0.99314984
0.99309943
0.99305311
0.99301640
0.99296975
0.99294419
0.99292094
0.99289678
0.99287913
0.99286740
0.99285626
0.99285294
0.99283805
0.99282907
0.99283329
0.99282539
0.99282169
0.99282585
0.99282657
0.99283549
0.99283022
0.99282846
0.99282139
0.99283390
0.99283589
0.99284194
0.99284501
0.99284972
0.99285628
0.99285961
0.99286624
0.99286322
0.99287503
0.99288126
0.99288287
0.99288156
0.99289283
0.99289341
0.99289530
0.99290893
0.99291565
0.99291787
0.99292077
0.99291499
0.99290503
0.99288985
0.99284847
0.99276207
0.99260742
0.99233160
0.99180111
0.99074788
0.98872132
0.98467570
0.97612010
0.95585448
0.90534450
0.78317170
0.53029311
0.21508535
0.06037702
0.01525907
0.00378942
0.00094250
0.00023576
0.00005909
0.00001485
0.00000374
0.00000094
0.00000024
0.00000006
0.00000002
0.00000000
0.00000000
0.00000000
0.00000000
0.00000000
0.00000000
0.00000000
0.00000000
0.00000000
0.00000000
0.00000000
0.00000000
0.00000000
0.00000000
0.00000000
0.00000000
0.00000000
0.00000000
0.00000000
0.00000000
0.00000000
0.00000000
0.00000000
0.00000000
0.00000000
0.00000000
0.00000000
0.00000000
0.00000000
0.00000000
0.00000000
0.00000000
0.00000000
0.00000000
0.00000000
0.00000000
0.00000000
0.00000000
0.00000000
0.00000000
0.00000000
0.00000000
0.00000000
0.00000000
0.00000000
0.00000000
0.00000000
0.00000000
0.00000000
0.00000000
0.00000000
0.00000000
0.00000000
0.00000000
0.00000000
0.00000000
0.00000000
0.00000000
0.00000000
0.00000000
0.00000000
0.00000000
0.00000000
0.00000000
0.00000000
0.00000000
0.00000000
0.00000000
0.00000000
0.00000000
0.00000000
0.00000000
0.00000000
0.00000000
0.00000000
0.00000000
0.00000000
0.00000000
0.00000000
0.00000000
0.00000000
0.00000000
0.00000000
0.00000000
0.00000000
0.00000000
0.00000000
0.00000000
0.00000000
0.00000000
0.00000000
0.00000000
0.00000000
0.00000000
0.00000000
0.00000000
0.00000000
0.00000000
0.00000000
0.00000000
0.00000000
0.00000000
0.00000000
0.00000000
0.00000000
0.00000000
0.00000000
0.00000000
0.00000000
0.00000000
0.00000000
0.00000000
0.00000000
1.00000000
1.00000000
1.00000000
1.00000000
1.00000000
1.00000000
1.00000000
1.00000000
1.00000000
1.00000000
1.00000000
1.00000000
1.00000000
1.00000000
1.00000000
1.00000000
1.00000000
1.00000000
1.00000000
1.00000000
1.00000000
1.00000000
1.00000000
1.00000000
1.00000000
1.00000000
1.00000000
1.00000000
1.00000000
1.00000000
1.00000000
1.00000000
1.00000000
1.00000000
1.00000000
1.00000000
1.00000000
1.00000000
1.00000000
1.00000000
1.00000000
1.00000000
1.00000000
1.00000000
1.00000000
1.00000000
1.00000000
1.00000000
1.00000000
1.00000000
1.00000000
1.00000000
1.00000000
1.00000000
1.00000000
1.00000000
1.00000000
1.00000000
1.00000000
1.00000000
1.00000000
1.00000000
1.00000000
1.00000000
1.00000000
1.00000000
1.00000000
1.00000000
1.00000000
1.00000000
1.00000000
1.00000000
1.00000000
1.00000000
1.00000000
1.00000000
1.00000000
1.00000000
1.00000000
1.00000000
1.00000000
1.00000000
1.00000000
1.00000000
1.00000000
1.00000000
1.00000000
1.00000000
1.00000000
1.00000000
1.00000000
1.00000000
1.00000000
1.00000000
1.00000000
1.00000000
1.00000000
1.00000000
1.00000000
1.00000000
1.00000000
1.00000000
1.00000000
1.00000000
1.00000000
1.00000000
1.00000000
1.00000000
1.00000000
1.00000000
1.00000000
1.00000000
1.00000000
1.00000000
1.00000000
1.00000000
1.00000000
1.00000000
1.00000000
1.00000000
1.00000000
1.00000000
1.00000000
1.00000000
0.99999996
0.99999972
0.99999806
0.99998742
0.99992641
0.99963027
0.99876418
0.99783966
0.99869750
0.99942183
0.99959648
0.99965121
0.99966985
0.99968540
0.99970380
0.99973046
0.99977629
0.99984278
0.99990622
0.99994591
0.99996563
0.99997162
0.99995280
0.99982097
0.99929455
0.99800458
0.99622369
0.99596868
0.99754317
0.99889913
0.99964289
0.99989005
0.99993236
0.99987747
0.99961246
0.99901560
0.99843881
0.99836598
0.99855378
0.99873089
0.99885287
0.99893840
0.99900132
0.99904793
0.99908365
0.99911108
0.99912961
0.99914486
0.99915449
0.99916141
0.99916603
0.99916857
0.99917044
0.99917077
0.99917154
0.99917177
0.99917139
0.99917121
0.99916912
0.99916620
0.99916538
0.99916284
0.99915829
0.99915374
0.99914849
0.99914369
0.99913639
0.99912861
0.99912284
0.99911502
0.99910718
0.99909681
0.99908605
0.99907465
0.99906322
0.99904843
0.99903521
0.99902068
0.99900387
0.99898692
0.99897009
0.99895054
0.99893305
0.99891480
0.99889698
0.99888144
0.99886476
0.99885275
0.99883990
0.99882848
0.99881768
0.99880905
0.99880139
0.99879306
0.99878867
0.99878417
0.99877905
0.99877513
0.99877254
0.99877157
0.99876853
0.99876785
0.99876645
0.99876576
0.99876499
0.99876494
0.99876589
0.99876709
0.99876664
0.99876657
0.99876662
0.99876499
0.99876637
0.99876626
0.99876625
0.99876809
0.99876870
0.99876967
0.99876869
0.99877102
0.99877009
0.99876928
0.99877029
0.99877026
0.99876662
0.99876758
0.99876479
0.99876333
0.99876254
0.99876070
0.99875833
0.99875270
0.99874582
0.99873913
0.99872854
0.99871181
0.99868445
0.99864239
0.99856787
0.99843753
0.99818598
0.99769304
0.99665480
0.99422190
0.98778636
0.96933126
0.91443055
0.75839096
0.41206002
0.12845426
0.03282365
0.00804255
0.00196130
0.00047996
0.00011785
0.00002903
0.00000716
0.00000177
0.00000044
0.00000011
0.00000003
0.00000001
0.00000000
0.00000000
0.00000000
0.00000000
0.00000000
0.00000000
0.00000000
0.00000000
0.00000000
0.00000000
0.00000000
0.00000000
0.00000000
0.00000000
0.00000000
0.00000000
0.00000000
0.00000000
0.00000000
0.00000000
0.00000000
0.00000000
0.00000000
0.00000000
0.00000000
0.00000000
0.00000000
0.00000000
0.00000000
0.00000000
0.00000000
0.00000000
0.00000000
0.00000000
0.00000000
0.00000000
0.00000000
0.00000000
0.00000000
0.00000000
0.00000000
0.00000000
0.00000000
0.00000000
0.00000000
0.00000000
0.00000000
0.00000000
0.00000000
0.00000000
0.00000000
0.00000000
0.00000000
0.00000000
0.00000000
0.00000000
0.00000000
0.00000000
0.00000000
0.00000000
0.00000000
0.00000000
0.00000000
0.00000000
0.00000000
0.00000000
0.00000000
0.00000000
0.00000000
0.00000000
0.00000000
0.00000000
0.00000000
0.00000000
0.00000000
0.00000000
0.00000000
0.00000000
0.00000000
0.00000000
0.00000000
0.00000000
0.00000000
0.00000000
0.00000000
0.00000000
0.00000000
0.00000000
0.00000000
0.00000000
0.00000000
0.00000000
0.00000000
0.00000000
0.00000000
0.00000000
0.00000000
0.00000000
0.00000000
0.00000000
0.00000000
0.00000000
0.00000000
0.00000000
0.00000000
0.00000000
0.00000000
0.00000000
0.00000000
0.00000000
0.00000000
0.00000000
1.00000000
1.00000000
1.00000000
1.00000000
1.00000000
1.00000000
1.00000000
1.00000000
1.00000000
1.00000000
1.00000000
1.00000000
1.00000000
1.00000000
1.00000000
1.00000000
1.00000000
1.00000000
1.00000000
1.00000000
1.00000000
1.00000000
1.00000000
1.00000000
1.00000000
1.00000000
1.00000000
1.00000000
1.00000000
1.00000000
1.00000000
1.00000000
1.00000000
1.00000000
1.00000000
1.00000000
1.00000000
1.00000000
1.00000000
1.00000000
1.00000000
1.00000000
1.00000000
1.00000000
1.00000000
1.00000000
1.00000000
1.00000000
1.00000000
1.00000000
1.00000000
1.00000000
1.00000000
1.00000000
1.00000000
1.00000000
1.00000000
1.00000000
1.00000000
1.00000000
1.00000000
1.00000000
1.00000000
1.00000000
1.00000000
1.00000000
1.00000000
1.00000000
1.00000000
1.00000000
1.00000000
1.00000000
1.00000000
1.00000000
1.00000000
1.00000000
1.00000000
1.00000000
1.00000000
1.00000000
1.00000000
1.00000000
1.00000000
1.00000000
1.00000000
1.00000000
1.00000000
1.00000000
1.00000000
1.00000000
1.00000000
1.00000000
1.00000000
1.00000000
1.00000000
1.00000000
1.00000000
1.00000000
1.00000000
1.00000000
1.00000000
1.00000000
1.00000000
1.00000000
1.00000000
1.00000000
1.00000000
1.00000000
1.00000000
1.00000000
1.00000000
1.00000000
1.00000000
1.00000000
1.00000000
1.00000000
1.00000000
1.00000000
1.00000000
1.00000000
1.00000000
1.00000000
1.00000000
1.00000000
0.99999999
0.99999993
0.99999952
0.99999710
0.99998380
0.99992091
0.99972127
0.99940456
0.99911167
0.99866820
0.99830697
0.99819130
0.99820381
0.99826574
0.99835545
0.99849659
0.99874659
0.99911769
0.99947816
0.99970310
0.99981968
0.99988987
0.99992606
0.99992236
0.99984771
0.99962727
0.99932727
0.99929061
0.99956190
0.99979937
0.99992920
0.99997193
0.99997875
0.99997004
0.99992438
0.99982182
0.99972361
0.99971096
0.99974417
0.99977570
0.99979793
0.99981373
0.99982531
0.99983376
0.99984039
0.99984534
0.99984889
0.99985172
0.99985353
0.99985493
0.99985569
0.99985635
0.99985671
0.99985702
0.99985709
0.99985725
0.99985732
0.99985727
0.99985690
0.99985665
0.99985653
0.99985592
0.99985534
0.99985460
0.99985369
0.99985304
0.99985176
0.99985070
0.99984943
0.99984811
0.99984680
0.99984512
0.99984339
0.99984129
0.99983943
0.99983664
0.99983439
0.99983168
0.99982883
0.99982604
0.99982348
0.99982065
0.99981773
0.99981427
0.99981078
0.99980757
0.99980438
0.99980188
0.99979957
0.99979745
0.99979536
0.99979390
0.99979237
0.99979090
0.99978997
0.99978885
0.99978809
0.99978753
0.99978690
0.99978658
0.99978628
0.99978600
0.99978555
0.99978546
0.99978538
0.99978525
0.99978543
0.99978570
0.99978552
0.99978551
0.99978551
0.99978545
0.99978529
0.99978522
0.99978542
0.99978559
0.99978553
0.99978549
0.99978539
0.99978558
0.99978498
0.99978482
0.99978478
0.99978453
0.99978371
0.99978308
0.99978234
0.99978167
0.99978067
0.99977960
0.99977823
0.99977618
0.99977363
0.99977090
0.99976710
0.99976165
0.99975372
0.99974166
0.99972132
0.99968544
0.99961458
0.99945935
0.99909419
0.99818011
0.99560474
0.98761609
0.96129004
0.87209152
0.59088447
0.20999110
0.05472525
0.01326652
0.00318086
0.00076582
0.00018501
0.00004484
0.00001091
0.00000266
0.00000065
0.00000016
0.00000004
0.00000001
0.00000000
0.00000000
0.00000000
0.00000000
0.00000000
0.00000000
0.00000000
0.00000000
0.00000000
0.00000000
0.00000000
0.00000000
0.00000000
0.00000000
0.00000000
0.00000000
0.00000000
0.00000000
0.00000000
0.00000000
0.00000000
0.00000000
0.00000000
0.00000000
0.00000000
0.00000000
0.00000000
0.00000000
0.00000000
0.00000000
0.00000000
0.00000000
0.00000000
0.00000000
0.00000000