# vtk DataFile Version 3.0
Concentration output
ASCII
DATASET STRUCTURED_POINTS
DIMENSIONS 398 98 1
ORIGIN 0 0 0
SPACING 0.03 0.03 1.0
POINT_DATA 39004
SCALARS Variable float 1
LOOKUP_TABLE default
1.00000000
1.00000000
1.00000000
1.00000000
1.00000000
1.00000000
1.00000000
1.00000000
1.00000000
1.00000000
1.00000000
1.00000000
1.00000000
1.00000000
1.00000000
1.00000000
1.00000000
1.00000000
1.00000000
1.00000000
1.00000000
1.00000000
1.00000000
1.00000000
1.00000000
1.00000000
1.00000000
1.00000000
1.00000000
1.00000000
1.00000000
1.00000000
1.00000000
1.00000000
1.00000000
1.00000000
1.00000000
1.00000000
1.00000000
1.00000000
1.00000000
1.00000000
1.00000000
1.00000000
1.00000000
1.00000000
1.00000000
1.00000000
1.00000000
1.00000000
1.00000000
1.00000000
1.00000000
1.00000000
1.00000000
1.00000000
1.00000000
1.00000000
1.00000000
1.00000000
1.00000000
1.00000000
1.00000000
1.00000000
1.00000000
1.00000000
1.00000000
1.00000000
1.00000000
1.00000000
1.00000000
1.00000000
1.00000000
1.00000000
1.00000000
1.00000000
1.00000000
1.00000000
1.00000000
1.00000000
1.00000000
1.00000000
1.00000000
1.00000000
1.00000000
1.00000000
1.00000000
1.00000000
1.00000000
1.00000000
1.00000000
1.00000000
1.00000000
1.00000000
1.00000000
1.00000000
1.00000000
1.00000000
1.00000000
1.00000000
1.00000000
1.00000000
1.00000000
1.00000000
1.00000000
1.00000000
1.00000000
1.00000000
1.00000000
1.00000000
1.00000000
1.00000000
1.00000000
1.00000000
1.00000000
1.00000000
1.00000000
0.99999999
0.99999992
0.99999940
0.99999545
0.99996637
0.99976017
0.99836560
0.98947131
0.93750092
0.69305406
0.21987800
0.05962584
0.02093481
0.01397844
0.02636093
0.07784876
0.27507889
0.74856351
0.94447860
0.98825299
0.99480846
0.98339717
0.92408905
0.70243883
0.35307864
0.31996480
0.64333423
0.87547906
0.85272031
0.56905843
0.21410707
0.07907651
0.04345429
0.04923695
0.08385892
0.15710937
0.24721775
0.24892761
0.17976453
0.13381113
0.16132062
0.18757657
0.13871064
0.09183582
0.06892737
0.06557008
0.06932152
0.07428176
0.07819993
0.08015294
0.08045187
0.08023597
0.07996251
0.07982766
0.07947864
0.07921378
0.07884236
0.07859163
0.07818145
0.07797290
0.07756733
0.07706042
0.07663640
0.07610853
0.07560271
0.07505854
0.07456482
0.07389174
0.07320768
0.07254440
0.07178111
0.07096230
0.07000184
0.06909866
0.06819374
0.06718020
0.06616494
0.06517440
0.06413609
0.06320626
0.06230730
0.06143868
0.06075813
0.06004138
0.05933443
0.05890438
0.05854893
0.05819272
0.05799354
0.05781419
0.05784068
0.05802651
0.05835541
0.05883386
0.05946697
0.06037068
0.06153337
0.06303472
0.06484613
0.06730978
0.07084392
0.07582170
0.08262460
0.09040715
0.09285199
0.07963425
0.05328612
0.02709778
0.01078980
0.00368313
0.00117557
0.00036359
0.00010983
0.00003262
0.00000952
0.00000275
0.00000078
0.00000022
0.00000006
0.00000002
0.00000000
0.00000000
0.00000000
0.00000000
0.00000000
0.00000000
0.00000000
0.00000000
0.00000000
0.00000000
0.00000000
0.00000000
0.00000000
0.00000000
0.00000000
0.00000000
0.00000000
0.00000000
0.00000000
0.00000000
0.00000000
0.00000000
0.00000000
0.00000000
0.00000000
0.00000000
0.00000000
0.00000000
0.00000000
0.00000000
0.00000000
0.00000000
0.00000000
0.00000000
0.00000000
0.00000000
0.00000000
0.00000000
0.00000000
0.00000000
0.00000000
0.00000000
0.00000000
0.00000000
0.00000000
0.00000000
0.00000000
0.00000000
0.00000000
0.00000000
0.00000000
0.00000000
0.00000000
0.00000000
0.00000000
0.00000000
0.00000000
0.00000000
0.00000000
0.00000000
0.00000000
0.00000000
0.00000000
0.00000000
0.00000000
0.00000000
0.00000000
0.00000000
0.00000000
0.00000000
0.00000000
0.00000000
0.00000000
0.00000000
0.00000000
0.00000000
0.00000000
0.00000000
0.00000000
0.00000000
0.00000000
0.00000000
0.00000000
0.00000000
0.00000000
0.00000000
0.00000000
0.00000000
0.00000000
0.00000000
0.00000000
0.00000000
0.00000000
0.00000000
0.00000000
0.00000000
0.00000000
0.00000000
0.00000000
0.00000000
0.00000000
0.00000000
0.00000000
0.00000000
0.00000000
0.00000000
0.00000000
0.00000000
0.00000000
0.00000000
0.00000000
0.00000000
0.00000000
0.00000000
0.00000000
0.00000000
0.00000000
0.00000000
0.00000000
0.00000000
0.00000000
0.00000000
0.00000000
0.00000000
0.00000000
0.00000000
0.00000000
0.00000000
0.00000000
0.00000000
0.00000000
0.00000000
0.00000000
0.00000000
0.00000000
0.00000000
0.00000000
0.00000000
0.00000000
0.00000000
0.00000000
0.00000000
0.00000000
0.00000000
0.00000000
0.00000000
0.00000000
0.00000000
0.00000000
0.00000000
0.00000000
0.00000000
0.00000000
0.00000000
0.00000000
0.00000000
0.00000000
0.00000000
0.00000000
0.00000000
0.00000000
1.00000000
1.00000000
1.00000000
1.00000000
1.00000000
1.00000000
1.00000000
1.00000000
1.00000000
1.00000000
1.00000000
1.00000000
1.00000000
1.00000000
1.00000000
1.00000000
1.00000000
1.00000000
1.00000000
1.00000000
1.00000000
1.00000000
1.00000000
1.00000000
1.00000000
1.00000000
1.00000000
1.00000000
1.00000000
1.00000000
1.00000000
1.00000000
1.00000000
1.00000000
1.00000000
1.00000000
1.00000000
1.00000000
1.00000000
1.00000000
1.00000000
1.00000000
1.00000000
1.00000000
1.00000000
1.00000000
1.00000000
1.00000000
1.00000000
1.00000000
1.00000000
1.00000000
1.00000000
1.00000000
1.00000000
1.00000000
1.00000000
1.00000000
1.00000000
1.00000000
1.00000000
1.00000000
1.00000000
1.00000000
1.00000000
1.00000000
1.00000000
1.00000000
1.00000000
1.00000000
1.00000000
1.00000000
1.00000000
1.00000000
1.00000000
1.00000000
1.00000000
1.00000000
1.00000000
1.00000000
1.00000000
1.00000000
1.00000000
1.00000000
1.00000000
1.00000000
1.00000000
1.00000000
1.00000000
1.00000000
1.00000000
1.00000000
1.00000000
1.00000000
1.00000000
1.00000000
1.00000000
1.00000000
1.00000000
1.00000000
1.00000000
1.00000000
1.00000000
1.00000000
1.00000000
1.00000000
1.00000000
1.00000000
1.00000000
1.00000000
1.00000000
1.00000000
1.00000000
1.00000000
1.00000000
1.00000000
1.00000000
1.00000000
0.99999998
0.99999980
0.99999840
0.99998782
0.99991093
0.99937843
0.99589747
0.97486483
0.86495526
0.51217967
0.21096875
0.09396981
0.06747785
0.11554279
0.25994992
0.59036905
0.89041020
0.97711902
0.99512820
0.99789593
0.99407331
0.97367472
0.89320589
0.71535720
0.68855304
0.86982547
0.95526269
0.94586575
0.82693701
0.54507065
0.28896481
0.19552439
0.21962248
0.33681143
0.54262420
0.70998157
0.72128932
0.60896850
0.49566633
0.56876850
0.62307154
0.50225039
0.36030686
0.28450811
0.27434249
0.28603846
0.30176369
0.31368841
0.32004751
0.32100320
0.32028982
0.31953299
0.31898476
0.31817772
0.31717654
0.31617801
0.31546275
0.31400590
0.31319792
0.31207358
0.31064832
0.30917507
0.30743329
0.30589743
0.30438554
0.30261326
0.30073899
0.29863002
0.29635841
0.29403839
0.29131092
0.28854497
0.28592679
0.28276498
0.27945102
0.27645222
0.27297552
0.26995258
0.26705553
0.26380542
0.26129693
0.25893659
0.25652753
0.25430544
0.25286554
0.25152265
0.25024924
0.24935143
0.24885798
0.24858344
0.24917856
0.25012079
0.25113358
0.25260418
0.25492800
0.25796199
0.26118559
0.26503513
0.26923907
0.27398863
0.27811184
0.27981959
0.27504980
0.25672098
0.21441037
0.14721767
0.07681108
0.03001473
0.00953811
0.00278969
0.00079816
0.00022645
0.00006386
0.00001788
0.00000498
0.00000138
0.00000038
0.00000010
0.00000003
0.00000001
0.00000000
0.00000000
0.00000000
0.00000000
0.00000000
0.00000000
0.00000000
0.00000000
0.00000000
0.00000000
0.00000000
0.00000000
0.00000000
0.00000000
0.00000000
0.00000000
0.00000000
0.00000000
0.00000000
0.00000000
0.00000000
0.00000000
0.00000000
0.00000000
0.00000000
0.00000000
0.00000000
0.00000000
0.00000000
0.00000000
0.00000000
0.00000000
0.00000000
0.00000000
0.00000000
0.00000000
0.00000000
0.00000000
0.00000000
0.00000000
0.00000000
0.00000000
0.00000000
0.00000000
0.00000000
0.00000000
0.00000000
0.00000000
0.00000000
0.00000000
0.00000000
0.00000000
0.00000000
0.00000000
0.00000000
0.00000000
0.00000000
0.00000000
0.00000000
0.00000000
0.00000000
0.00000000
0.00000000
0.00000000
0.00000000
0.00000000
0.00000000
0.00000000
0.00000000
0.00000000
0.00000000
0.00000000
0.00000000
0.00000000
0.00000000
0.00000000
0.00000000
0.00000000
0.00000000
0.00000000
0.00000000
0.00000000
0.00000000
0.00000000
0.00000000
0.00000000
0.00000000
0.00000000
0.00000000
0.00000000
0.00000000
0.00000000
0.00000000
0.00000000
0.00000000
0.00000000
0.00000000
0.00000000
0.00000000
0.00000000
0.00000000
0.00000000
0.00000000
0.00000000
0.00000000
0.00000000
0.00000000
0.00000000
0.00000000
0.00000000
0.00000000
0.00000000
0.00000000
0.00000000
0.00000000
0.00000000
0.00000000
0.00000000
0.00000000
0.00000000
0.00000000
0.00000000
0.00000000
0.00000000
0.00000000
0.00000000
0.00000000
0.00000000
0.00000000
0.00000000
0.00000000
0.00000000
0.00000000
0.00000000
0.00000000
0.00000000
0.00000000
0.00000000
0.00000000
0.00000000
0.00000000
0.00000000
0.00000000
0.00000000
0.00000000
0.00000000
0.00000000
0.00000000
0.00000000
0.00000000
0.00000000
0.00000000
0.00000000
0.00000000
0.00000000
0.00000000
0.00000000
0.00000000
0.00000000
0.00000000
1.00000000
1.00000000
1.00000000
1.00000000
1.00000000
1.00000000
1.00000000
1.00000000
1.00000000
1.00000000
1.00000000
1.00000000
1.00000000
1.00000000
1.00000000
1.00000000
1.00000000
1.00000000
1.00000000
1.00000000
1.00000000
1.00000000
1.00000000
1.00000000
1.00000000
1.00000000
1.00000000
1.00000000
1.00000000
1.00000000
1.00000000
1.00000000
1.00000000
1.00000000
1.00000000
1.00000000
1.00000000
1.00000000
1.00000000
1.00000000
1.00000000
1.00000000
1.00000000
1.00000000
1.00000000
1.00000000
1.00000000
1.00000000
1.00000000
1.00000000
1.00000000
1.00000000
1.00000000
1.00000000
1.00000000
1.00000000
1.00000000
1.00000000
1.00000000
1.00000000
1.00000000
1.00000000
1.00000000
1.00000000
1.00000000
1.00000000
1.00000000
1.00000000
1.00000000
1.00000000
1.00000000
1.00000000
1.00000000
1.00000000
1.00000000
1.00000000
1.00000000
1.00000000
1.00000000
1.00000000
1.00000000
1.00000000
1.00000000
1.00000000
1.00000000
1.00000000
1.00000000
1.00000000
1.00000000
1.00000000
1.00000000
1.00000000
1.00000000
1.00000000
1.00000000
1.00000000
1.00000000
1.00000000
1.00000000
1.00000000
1.00000000
1.00000000
1.00000000
1.00000000
1.00000000
1.00000000
1.00000000
1.00000000
1.00000000
1.00000000
1.00000000
1.00000000
1.00000000
1.00000000
1.00000000
1.00000000
1.00000000
1.00000000
1.00000000
0.99999996
0.99999969
0.99999751
0.99998110
0.99986418
0.99908236
0.99425201
0.96786715
0.86370397
0.66559159
0.43620372
0.34192154
0.50314416
0.72292009
0.89052156
0.97317254
0.99433203
0.99872472
0.99939384
0.99846452
0.99358201
0.97469798
0.93020942
0.92381666
0.96915106
0.98851174
0.98693313
0.96101002
0.89025743
0.79824913
0.74861758
0.77356055
0.83451076
0.89975483
0.93988006
0.94217017
0.91604042
0.88796706
0.90689228
0.92001572
0.89139341
0.85072344
0.82445050
0.82128731
0.82755442
0.83457165
0.83950759
0.84188652
0.84230264
0.84231402
0.84211636
0.84191787
0.84155533
0.84138230
0.84097687
0.84070839
0.84032937
0.84012385
0.83957506
0.83906089
0.83849522
0.83806416
0.83745892
0.83672711
0.83600939
0.83514603
0.83429459
0.83336152
0.83241496
0.83119082
0.82997058
0.82852656
0.82707905
0.82569208
0.82395662
0.82226299
0.82048191
0.81873312
0.81692448
0.81513332
0.81384738
0.81232302
0.81082944
0.80958131
0.80837405
0.80750852
0.80667036
0.80613449
0.80559840
0.80548801
0.80558619
0.80574935
0.80610888
0.80664765
0.80717447
0.80756105
0.80733775
0.80604907
0.80274643
0.79390939
0.77478330
0.73469792
0.66398778
0.55804935
0.41409746
0.24073591
0.09980385
0.03104390
0.00851859
0.00227651
0.00060655
0.00016151
0.00004305
0.00001147
0.00000305
0.00000081
0.00000022
0.00000006
0.00000002
0.00000000
0.00000000
0.00000000
0.00000000
0.00000000
0.00000000
0.00000000
0.00000000
0.00000000
0.00000000
0.00000000
0.00000000
0.00000000
0.00000000
0.00000000
0.00000000
0.00000000
0.00000000
0.00000000
0.00000000
0.00000000
0.00000000
0.00000000
0.00000000
0.00000000
0.00000000
0.00000000
0.00000000
0.00000000
0.00000000
0.00000000
0.00000000
0.00000000
0.00000000
0.00000000
0.00000000
0.00000000
0.00000000
0.00000000
0.00000000
0.00000000
0.00000000
0.00000000
0.00000000
0.00000000
0.00000000
0.00000000
0.00000000
0.00000000
0.00000000
0.00000000
0.00000000
0.00000000
0.00000000
0.00000000
0.00000000
0.00000000
0.00000000
0.00000000
0.00000000
0.00000000
0.00000000
0.00000000
0.00000000
0.00000000
0.00000000
0.00000000
0.00000000
0.00000000
0.00000000
0.00000000
0.00000000
0.00000000
0.00000000
0.00000000
0.00000000
0.00000000
0.00000000
0.00000000
0.00000000
0.00000000
0.00000000
0.00000000
0.00000000
0.00000000
0.00000000
0.00000000
0.00000000
0.00000000
0.00000000
0.00000000
0.00000000
0.00000000
0.00000000
0.00000000
0.00000000
0.00000000
0.00000000
0.00000000
0.00000000
0.00000000
0.00000000
0.00000000
0.00000000
0.00000000
0.00000000
0.00000000
0.00000000
0.00000000
0.00000000
0.00000000
0.00000000
0.00000000
0.00000000
0.00000000
0.00000000
0.00000000
0.00000000
0.00000000
0.00000000
0.00000000
0.00000000
0.00000000
0.00000000
0.00000000
0.00000000
0.00000000
0.00000000
0.00000000
0.00000000
0.00000000
0.00000000
0.00000000
0.00000000
0.00000000
0.00000000
0.00000000
0.00000000
0.00000000
0.00000000
0.00000000
0.00000000
0.00000000
0.00000000
0.00000000
0.00000000
0.00000000
0.00000000
0.00000000
0.00000000
0.00000000
0.00000000
0.00000000
0.00000000
0.00000000
0.00000000
0.00000000
0.00000000
0.00000000
0.00000000
1.00000000
1.00000000
1.00000000
1.00000000
1.00000000
1.00000000
1.00000000
1.00000000
1.00000000
1.00000000
1.00000000
1.00000000
1.00000000
1.00000000
1.00000000
1.00000000
1.00000000
1.00000000
1.00000000
1.00000000
1.00000000
1.00000000
1.00000000
1.00000000
1.00000000
1.00000000
1.00000000
1.00000000
1.00000000
1.00000000
1.00000000
1.00000000
1.00000000
1.00000000
1.00000000
1.00000000
1.00000000
1.00000000
1.00000000
1.00000000
1.00000000
1.00000000
1.00000000
1.00000000
1.00000000
1.00000000
1.00000000
1.00000000
1.00000000
1.00000000
1.00000000
1.00000000
1.00000000
1.00000000
1.00000000
1.00000000
1.00000000
1.00000000
1.00000000
1.00000000
1.00000000
1.00000000
1.00000000
1.00000000
1.00000000
1.00000000
1.00000000
1.00000000
1.00000000
1.00000000
1.00000000
1.00000000
1.00000000
1.00000000
1.00000000
1.00000000
1.00000000
1.00000000
1.00000000
1.00000000
1.00000000
1.00000000
1.00000000
1.00000000
1.00000000
1.00000000
1.00000000
1.00000000
1.00000000
1.00000000
1.00000000
1.00000000
1.00000000
1.00000000
1.00000000
1.00000000
1.00000000
1.00000000
1.00000000
1.00000000
1.00000000
1.00000000
1.00000000
1.00000000
1.00000000
1.00000000
1.00000000
1.00000000
1.00000000
1.00000000
1.00000000
1.00000000
1.00000000
1.00000000
1.00000000
1.00000000
1.00000000
1.00000000
1.00000000
0.99999999
0.99999995
0.99999956
0.99999662
0.99997541
0.99983334
0.99895998
0.99420701
0.97460848
0.93133731
0.87098002
0.84130638
0.88939670
0.94340067
0.97889016
0.99474416
0.99882766
0.99970724
0.99983825
0.99963893
0.99860645
0.99473363
0.98562833
0.98446560
0.99355559
0.99737841
0.99717291
0.99240346
0.97909467
0.96087439
0.95113286
0.95679127
0.96939867
0.98175678
0.98891420
0.98932049
0.98469223
0.97983337
0.98313369
0.98543217
0.98056264
0.97336337
0.96867607
0.96814329
0.96939691
0.97083096
0.97181791
0.97228370
0.97241115
0.97243571
0.97238965
0.97237181
0.97232763
0.97228761
0.97223682
0.97221180
0.97214001
0.97208616
0.97202789
0.97191876
0.97180732
0.97172896
0.97160904
0.97148980
0.97134395
0.97119503
0.97105331
0.97086220
0.97065469
0.97041940
0.97013710
0.96986436
0.96958348
0.96926710
0.96889614
0.96852065
0.96817379
0.96776701
0.96739562
0.96698399
0.96666703
0.96628685
0.96595936
0.96561591
0.96530686
0.96510284
0.96486409
0.96468589
0.96449754
0.96438699
0.96430814
0.96424400
0.96419622
0.96419335
0.96410196
0.96394323
0.96357993
0.96282636
0.96134125
0.95825906
0.95179071
0.93844793
0.91221643
0.85897979
0.75012755
0.55276957
0.28470253
0.09529892
0.02561915
0.00654057
0.00166179
0.00042302
0.00010828
0.00002778
0.00000714
0.00000184
0.00000047
0.00000012
0.00000003
0.00000001
0.00000000
0.00000000
0.00000000
0.00000000
0.00000000
0.00000000
0.00000000
0.00000000
0.00000000
0.00000000
0.00000000
0.00000000
0.00000000
0.00000000
0.00000000
0.00000000
0.00000000
0.00000000
0.00000000
0.00000000
0.00000000
0.00000000
0.00000000
0.00000000
0.00000000
0.00000000
0.00000000
0.00000000
0.00000000
0.00000000
0.00000000
0.00000000
0.00000000
0.00000000
0.00000000
0.00000000
0.00000000
0.00000000
0.00000000
0.00000000
0.00000000
0.00000000
0.00000000
0.00000000
0.00000000
0.00000000
0.00000000
0.00000000
0.00000000
0.00000000
0.00000000
0.00000000
0.00000000
0.00000000
0.00000000
0.00000000
0.00000000
0.00000000
0.00000000
0.00000000
0.00000000
0.00000000
0.00000000
0.00000000
0.00000000
0.00000000
0.00000000
0.00000000
0.00000000
0.00000000
0.00000000
0.00000000
0.00000000
0.00000000
0.00000000
0.00000000
0.00000000
0.00000000
0.00000000
0.00000000
0.00000000
0.00000000
0.00000000
0.00000000
0.00000000
0.00000000
0.00000000
0.00000000
0.00000000
0.00000000
0.00000000
0.00000000
0.00000000
0.00000000
0.00000000
0.00000000
0.00000000
0.00000000
0.00000000
0.00000000
0.00000000
0.00000000
0.00000000
0.00000000
0.00000000
0.00000000
0.00000000
0.00000000
0.00000000
0.00000000
0.00000000
0.00000000
0.00000000
0.00000000
0.00000000
0.00000000
0.00000000
0.00000000
0.00000000
0.00000000
0.00000000
0.00000000
0.00000000
0.00000000
0.00000000
0.00000000
0.00000000
0.00000000
0.00000000
0.00000000
0.00000000
0.00000000
0.00000000
0.00000000
0.00000000
0.00000000
0.00000000
0.00000000
0.00000000
0.00000000
0.00000000
0.00000000
0.00000000
0.00000000
0.00000000
0.00000000
0.00000000
0.00000000
0.00000000
0.00000000
0.00000000
0.00000000
0.00000000
0.00000000
0.00000000
0.00000000
0.00000000
0.00000000
0.00000000
1.00000000
1.00000000
1.00000000
1.00000000
1.00000000
1.00000000
1.00000000
1.00000000
1.00000000
1.00000000
1.00000000
1.00000000
1.00000000
1.00000000
1.00000000
1.00000000
1.00000000
1.00000000
1.00000000
1.00000000
1.00000000
1.00000000
1.00000000
1.00000000
1.00000000
1.00000000
1.00000000
1.00000000
1.00000000
1.00000000
1.00000000
1.00000000
1.00000000
1.00000000
1.00000000
1.00000000
1.00000000
1.00000000
1.00000000
1.00000000
1.00000000
1.00000000
1.00000000
1.00000000
1.00000000
1.00000000
1.00000000
1.00000000
1.00000000
1.00000000
1.00000000
1.00000000
1.00000000
1.00000000
1.00000000
1.00000000
1.00000000
1.00000000
1.00000000
1.00000000
1.00000000
1.00000000
1.00000000
1.00000000
1.00000000
1.00000000
1.00000000
1.00000000
1.00000000
1.00000000
1.00000000
1.00000000
1.00000000
1.00000000
1.00000000
1.00000000
1.00000000
1.00000000
1.00000000
1.00000000
1.00000000
1.00000000
1.00000000
1.00000000
1.00000000
1.00000000
1.00000000
1.00000000
1.00000000
1.00000000
1.00000000
1.00000000
1.00000000
1.00000000
1.00000000
1.00000000
1.00000000
1.00000000
1.00000000
1.00000000
1.00000000
1.00000000
1.00000000
1.00000000
1.00000000
1.00000000
1.00000000
1.00000000
1.00000000
1.00000000
1.00000000
1.00000000
1.00000000
1.00000000
1.00000000
1.00000000
1.00000000
1.00000000
1.00000000
1.00000000
0.99999999
0.99999993
0.99999943
0.99999581
0.99997161
0.99982410
0.99902696
0.99569374
0.98793492
0.97679539
0.97125121
0.97990962
0.98977685
0.99620320
0.99900844
0.99974553
0.99989461
0.99990854
0.99987577
0.99968307
0.99894133
0.99721787
0.99702026
0.99871792
0.99943550
0.99941336
0.99857459
0.99622039
0.99297926
0.99130768
0.99236449
0.99462621
0.99678487
0.99800412
0.99808035
0.99730314
0.99651140
0.99705015
0.99742565
0.99663722
0.99545590
0.99468319
0.99460553
0.99483144
0.99508712
0.99526782
0.99535430
0.99537816
0.99538597
0.99538277
0.99538179
0.99538146
0.99537407
0.99536838
0.99536523
0.99535459
0.99534792
0.99533918
0.99532173
0.99530615
0.99529376
0.99527468
0.99526003
0.99523419
0.99520680
0.99517950
0.99514546
0.99511159
0.99507255
0.99502287
0.99496721
0.99491765
0.99485538
0.99479468
0.99472532
0.99465087
0.99457534
0.99449806
0.99441502
0.99434713
0.99427210
0.99420251
0.99413193
0.99405823
0.99400377
0.99395003
0.99389970
0.99385004
0.99381201
0.99376686
0.99373645
0.99370027
0.99365928
0.99360526
0.99352835
0.99339883
0.99317112
0.99275746
0.99195355
0.99032175
0.98691950
0.97967169
0.96241917
0.91840839
0.80755507
0.56423307
0.23487497
0.06614277
0.01665745
0.00411126
0.00101595
0.00025228
0.00006285
0.00001572
0.00000394
0.00000099
0.00000025
0.00000006
0.00000002
0.00000000
0.00000000
0.00000000
0.00000000
0.00000000
0.00000000
0.00000000
0.00000000
0.00000000
0.00000000
0.00000000
0.00000000
0.00000000
0.00000000
0.00000000
0.00000000
0.00000000
0.00000000
0.00000000
0.00000000
0.00000000
0.00000000
0.00000000
0.00000000
0.00000000
0.00000000
0.00000000
0.00000000
0.00000000
0.00000000
0.00000000
0.00000000
0.00000000
0.00000000
0.00000000
0.00000000
0.00000000
0.00000000
0.00000000
0.00000000
0.00000000
0.00000000
0.00000000
0.00000000
0.00000000
0.00000000
0.00000000
0.00000000
0.00000000
0.00000000
0.00000000
0.00000000
0.00000000
0.00000000
0.00000000
0.00000000
0.00000000
0.00000000
0.00000000
0.00000000
0.00000000
0.00000000
0.00000000
0.00000000
0.00000000
0.00000000
0.00000000
0.00000000
0.00000000
0.00000000
0.00000000
0.00000000
0.00000000
0.00000000
0.00000000
0.00000000
0.00000000
0.00000000
0.00000000
0.00000000
0.00000000
0.00000000
0.00000000
0.00000000
0.00000000
0.00000000
0.00000000
0.00000000
0.00000000
0.00000000
0.00000000
0.00000000
0.00000000
0.00000000
0.00000000
0.00000000
0.00000000
0.00000000
0.00000000
0.00000000
0.00000000
0.00000000
0.00000000
0.00000000
0.00000000
0.00000000
0.00000000
0.00000000
0.00000000
0.00000000
0.00000000
0.00000000
0.00000000
0.00000000
0.00000000
0.00000000
0.00000000
0.00000000
0.00000000
0.00000000
0.00000000
0.00000000
0.00000000
0.00000000
0.00000000
0.00000000
0.00000000
0.00000000
0.00000000
0.00000000
0.00000000
0.00000000
0.00000000
0.00000000
0.00000000
0.00000000
0.00000000
0.00000000
0.00000000
0.00000000
0.00000000
0.00000000
0.00000000
0.00000000
0.00000000
0.00000000
0.00000000
0.00000000
0.00000000
0.00000000
0.00000000
0.00000000
0.00000000
0.00000000
0.00000000
0.00000000
0.00000000
0.00000000
0.00000000
1.00000000
1.00000000
1.00000000
1.00000000
1.00000000
1.00000000
1.00000000
1.00000000
1.00000000
1.00000000
1.00000000
1.00000000
1.00000000
1.00000000
1.00000000
1.00000000
1.00000000
1.00000000
1.00000000
1.00000000
1.00000000
1.00000000
1.00000000
1.00000000
1.00000000
1.00000000
1.00000000
1.00000000
1.00000000
1.00000000
1.00000000
1.00000000
1.00000000
1.00000000
1.00000000
1.00000000
1.00000000
1.00000000
1.00000000
1.00000000
1.00000000
1.00000000
1.00000000
1.00000000
1.00000000
1.00000000
1.00000000
1.00000000
1.00000000
1.00000000
1.00000000
1.00000000
1.00000000
1.00000000
1.00000000
1.00000000
1.00000000
1.00000000
1.00000000
1.00000000
1.00000000
1.00000000
1.00000000
1.00000000
1.00000000
1.00000000
1.00000000
1.00000000
1.00000000
1.00000000
1.00000000
1.00000000
1.00000000
1.00000000
1.00000000
1.00000000
1.00000000
1.00000000
1.00000000
1.00000000
1.00000000
1.00000000
1.00000000
1.00000000
1.00000000
1.00000000
1.00000000
1.00000000
1.00000000
1.00000000
1.00000000
1.00000000
1.00000000
1.00000000
1.00000000
1.00000000
1.00000000
1.00000000
1.00000000
1.00000000
1.00000000
1.00000000
1.00000000
1.00000000
1.00000000
1.00000000
1.00000000
1.00000000
1.00000000
1.00000000
1.00000000
1.00000000
1.00000000
1.00000000
1.00000000
1.00000000
1.00000000
1.00000000
1.00000000
1.00000000
1.00000000
0.99999999
0.99999990
0.99999929
0.99999523
0.99997067
0.99983915
0.99928322
0.99794204
0.99599155
0.99501599
0.99645278
0.99815267
0.99926149
0.99970632
0.99976718
0.99973816
0.99971100
0.99971113
0.99972411
0.99966154
0.99940366
0.99940404
0.99972368
0.99986552
0.99987216
0.99972981
0.99932263
0.99876274
0.99847957
0.99867054
0.99906573
0.99943581
0.99964221
0.99965740
0.99952823
0.99940108
0.99948741
0.99954764
0.99942130
0.99922884
0.99910337
0.99909123
0.99913144
0.99917554
0.99920783
0.99922313
0.99922893
0.99923105
0.99923122
0.99923211
0.99923233
0.99923174
0.99923167
0.99923118
0.99923039
0.99922971
0.99922826
0.99922653
0.99922352
0.99922213
0.99921884
0.99921580
0.99921264
0.99920831
0.99920349
0.99919718
0.99919149
0.99918466
0.99917609
0.99916725
0.99915793
0.99914678
0.99913483
0.99912201
0.99910806
0.99909349
0.99907871
0.99906239
0.99904852
0.99903323
0.99901848
0.99900399
0.99898885
0.99897446
0.99896162
0.99894876
0.99893614
0.99892419
0.99891202
0.99889962
0.99888732
0.99887283
0.99885449
0.99883091
0.99879320
0.99873409
0.99863129
0.99843297
0.99802861
0.99714760
0.99508546
0.98960111
0.97362284
0.92478810
0.77919951
0.43376705
0.13589553
0.03465392
0.00844973
0.00205070
0.00049917
0.00012187
0.00002984
0.00000733
0.00000180
0.00000044
0.00000011
0.00000003
0.00000001
0.00000000
0.00000000
0.00000000
0.00000000
0.00000000
0.00000000
0.00000000
0.00000000
0.00000000
0.00000000
0.00000000
0.00000000
0.00000000
0.00000000
0.00000000
0.00000000
0.00000000
0.00000000
0.00000000
0.00000000
0.00000000
0.00000000
0.00000000
0.00000000
0.00000000
0.00000000
0.00000000
0.00000000
0.00000000
0.00000000
0.00000000
0.00000000
0.00000000
0.00000000
0.00000000
0.00000000
0.00000000
0.00000000
0.00000000
0.00000000
0.00000000
0.00000000
0.00000000
0.00000000
0.00000000
0.00000000
0.00000000
0.00000000
0.00000000
0.00000000
0.00000000
0.00000000
0.00000000
0.00000000
0.00000000
0.00000000
0.00000000
0.00000000
0.00000000
0.00000000
0.00000000
0.00000000
0.00000000
0.00000000
0.00000000
0.00000000
0.00000000
0.00000000
0.00000000
0.00000000
0.00000000
0.00000000
0.00000000
0.00000000
0.00000000
0.00000000
0.00000000
0.00000000
0.00000000
0.00000000
0.00000000
0.00000000
0.00000000
0.00000000
0.00000000
0.00000000
0.00000000
0.00000000
0.00000000
0.00000000
0.00000000
0.00000000
0.00000000
0.00000000
0.00000000
0.00000000
0.00000000
0.00000000
0.00000000
0.00000000
0.00000000
0.00000000
0.00000000
0.00000000
0.00000000
0.00000000
0.00000000
0.00000000
0.00000000
0.00000000
0.00000000
0.00000000
0.00000000
0.00000000
0.00000000
0.00000000
0.00000000
0.00000000
0.00000000
0.00000000
0.00000000
0.00000000
0.00000000
0.00000000
0.00000000
0.00000000
0.00000000
0.00000000
0.00000000
0.00000000
0.00000000
0.00000000
0.00000000
0.00000000
0.00000000
0.00000000
0.00000000
0.00000000
0.00000000
0.00000000
0.00000000
0.00000000
0.00000000
0.00000000
0.00000000
0.00000000
0.00000000
0.00000000
0.00000000
0.00000000
0.00000000
0.00000000
0.00000000
0.00000000
0.00000000
0.00000000
0.00000000
0.00000000
1.00000000
1.00000000
1.00000000
1.00000000
1.00000000
1.00000000
1.00000000
1.00000000
1.00000000
1.00000000
1.00000000
1.00000000
1.00000000
1.00000000
1.00000000
1.00000000
1.00000000
1.00000000
1.00000000
1.00000000
1.00000000
1.00000000
1.00000000
1.00000000
1.00000000
1.00000000
1.00000000
1.00000000
1.00000000
1.00000000
1.00000000
1.00000000
1.00000000
1.00000000
1.00000000
1.00000000
1.00000000
1.00000000
1.00000000
1.00000000
1.00000000
1.00000000
1.00000000
1.00000000
1.00000000
1.00000000
1.00000000
1.00000000
1.00000000
1.00000000
1.00000000
1.00000000
1.00000000
1.00000000
1.00000000
1.00000000
1.00000000
1.00000000
1.00000000
1.00000000
1.00000000
1.00000000
1.00000000
1.00000000
1.00000000
1.00000000
1.00000000
1.00000000
1.00000000
1.00000000
1.00000000
1.00000000
1.00000000
1.00000000
1.00000000
1.00000000
1.00000000
1.00000000
1.00000000
1.00000000
1.00000000
1.00000000
1.00000000
1.00000000
1.00000000
1.00000000
1.00000000
1.00000000
1.00000000
1.00000000
1.00000000
1.00000000
1.00000000
1.00000000
1.00000000
1.00000000
1.00000000
1.00000000
1.00000000
1.00000000
1.00000000
1.00000000
1.00000000
1.00000000
1.00000000
1.00000000
1.00000000
1.00000000
1.00000000
1.00000000
1.00000000
1.00000000
1.00000000
1.00000000
1.00000000
1.00000000
1.00000000
1.00000000
1.00000000
1.00000000
1.00000000
1.00000000
0.99999998
0.99999984
0.99999900
0.99999409
0.99996869
0.99986243
0.99959381
0.99918055
0.99892019
0.99913237
0.99938446
0.99948277
0.99931299
0.99897272
0.99865009
0.99848974
0.99853930
0.99881961
0.99920560
0.99948131
0.99966104
0.99981068
0.99989283
0.99992246
0.99991022
0.99985035
0.99976229
0.99972275
0.99976048
0.99983051
0.99989426
0.99992939
0.99993230
0.99991115
0.99989080
0.99990460
0.99991441
0.99989414
0.99986302
0.99984250
0.99984086
0.99984798
0.99985590
0.99986150
0.99986456
0.99986578
0.99986652
0.99986686
0.99986720
0.99986741
0.99986750
0.99986778
0.99986792
0.99986786
0.99986811
0.99986803
0.99986773
0.99986763
0.99986741
0.99986698
0.99986660
0.99986618
0.99986561
0.99986488
0.99986389
0.99986297
0.99986185
0.99986045
0.99985899
0.99985723
0.99985537
0.99985335
0.99985111
0.99984854
0.99984568
0.99984275
0.99983985
0.99983705
0.99983393
0.99983087
0.99982780
0.99982456
0.99982147
0.99981851
0.99981539
0.99981218
0.99980893
0.99980572
0.99980227
0.99979829
0.99979402
0.99978801
0.99978092
0.99976980
0.99975289
0.99972236
0.99965831
0.99951414
0.99918200
0.99835094
0.99599476
0.98861760
0.96400675
0.87849765
0.59788826
0.21106001
0.05460289
0.01313389
0.00312954
0.00074926
0.00018009
0.00004340
0.00001051
0.00000255
0.00000062
0.00000015
0.00000004
0.00000001
0.00000000
0.00000000
0.00000000
0.00000000
0.00000000
0.00000000
0.00000000
0.00000000
0.00000000
0.00000000
0.00000000
0.00000000
0.00000000
0.00000000
0.00000000
0.00000000
0.00000000
0.00000000
0.00000000
0.00000000
0.00000000
0.00000000
0.00000000
0.00000000
0.00000000
0.00000000
0.00000000
0.00000000
0.00000000
0.00000000
0.00000000
0.00000000
0.00000000
0.00000000
0.00000000
0.00000000
0.00000000
0.00000000
0.00000000
0.00000000
0.00000000
0.00000000
0.00000000
0.00000000
0.00000000
0.00000000
0.00000000
0.00000000
0.00000000
0.00000000
0.00000000
0.00000000
0.00000000
0.00000000
0.00000000
0.00000000
0.00000000
0.00000000
0.00000000
0.00000000
0.00000000
0.00000000
0.00000000
0.00000000
0.00000000
0.00000000
0.00000000
0.00000000
0.00000000
0.00000000
0.00000000
0.00000000
0.00000000
0.00000000
0.00000000
0.00000000
0.00000000
0.00000000
0.00000000
0.00000000
0.00000000