# vtk DataFile Version 3.0
Concentration output
ASCII
DATASET STRUCTURED_POINTS
DIMENSIONS 398 98 1
ORIGIN 0 0 0
SPACING 0.03 0.03 1.0
POINT_DATA 39004
SCALARS Variable float 1
LOOKUP_TABLE default
1.00000000
1.00000000
1.00000000
1.00000000
1.00000000
1.00000000
1.00000000
1.00000000
1.00000000
1.00000000
1.00000000
1.00000000
1.00000000
1.00000000
1.00000000
1.00000000
1.00000000
1.00000000
1.00000000
1.00000000
1.00000000
1.00000000
1.00000000
1.00000000
1.00000000
1.00000000
1.00000000
1.00000000
1.00000000
1.00000000
1.00000000
1.00000000
1.00000000
1.00000000
1.00000000
1.00000000
1.00000000
1.00000000
1.00000000
1.00000000
1.00000000
1.00000000
1.00000000
1.00000000
1.00000000
1.00000000
1.00000000
1.00000000
1.00000000
1.00000000
1.00000000
1.00000000
1.00000000
1.00000000
1.00000000
1.00000000
1.00000000
1.00000000
1.00000000
1.00000000
1.00000000
1.00000000
1.00000000
1.00000000
1.00000000
1.00000000
1.00000000
1.00000000
1.00000000
1.00000000
1.00000000
1.00000000
1.00000000
1.00000000
1.00000000
1.00000000
1.00000000
1.00000000
1.00000000
1.00000000
1.00000000
1.00000000
1.00000000
1.00000000
1.00000000
1.00000000
1.00000000
1.00000000
1.00000000
1.00000000
1.00000000
1.00000000
1.00000000
1.00000000
1.00000000
1.00000000
1.00000000
1.00000000
1.00000000
1.00000000
1.00000000
1.00000000
1.00000000
1.00000000
1.00000000
1.00000000
1.00000000
1.00000000
1.00000000
1.00000000
1.00000000
1.00000000
1.00000000
1.00000000
1.00000000
1.00000000
1.00000000
1.00000000
1.00000000
1.00000000
1.00000000
1.00000000
1.00000000
1.00000000
1.00000000
1.00000000
1.00000000
1.00000000
1.00000000
1.00000000
1.00000000
1.00000000
1.00000000
0.99999999
0.99999997
0.99999994
0.99999991
0.99999991
0.99999992
0.99999988
0.99999964
0.99999811
0.99998935
0.99993966
0.99965953
0.99809516
0.98945603
0.94331756
0.72807530
0.22457690
0.05609015
0.02527382
0.06574559
0.26411819
0.76654424
0.95163449
0.98948917
0.99131156
0.96169268
0.81365017
0.35401764
0.10368820
0.03670580
0.02317186
0.02818682
0.03492276
0.03987957
0.04347022
0.04645528
0.04907045
0.05151840
0.05384632
0.05589302
0.05769865
0.05922988
0.06044292
0.06155102
0.06229748
0.06285207
0.06323869
0.06343983
0.06354728
0.06356160
0.06353174
0.06338779
0.06318872
0.06291998
0.06251336
0.06218502
0.06178109
0.06123253
0.06076190
0.06027243
0.05964843
0.05908823
0.05842136
0.05779376
0.05713834
0.05638278
0.05567045
0.05488201
0.05417449
0.05348270
0.05268645
0.05189829
0.05126786
0.05052613
0.04985999
0.04917847
0.04863848
0.04802371
0.04742689
0.04693591
0.04647560
0.04605678
0.04569603
0.04531621
0.04506358
0.04482257
0.04450328
0.04431751
0.04417396
0.04399185
0.04387110
0.04373724
0.04365700
0.04356805
0.04353172
0.04347794
0.04344759
0.04339798
0.04339083
0.04341228
0.04340008
0.04345408
0.04345329
0.04347489
0.04363557
0.04364943
0.04376606
0.04381654
0.04394769
0.04407802
0.04420612
0.04423858
0.04444423
0.04452897
0.04464720
0.04476928
0.04487546
0.04500138
0.04509204
0.04517487
0.04528032
0.04536840
0.04548063
0.04552096
0.04558741
0.04565027
0.04569864
0.04569698
0.04573552
0.04572074
0.04572788
0.04573507
0.04569126
0.04572727
0.04566437
0.04557588
0.04551766
0.04548235
0.04543695
0.04532132
0.04527838
0.04517876
0.04510592
0.04499980
0.04487832
0.04475885
0.04462532
0.04449936
0.04441290
0.04426702
0.04409332
0.04396088
0.04382266
0.04363083
0.04350703
0.04332143
0.04312819
0.04296402
0.04284905
0.04261162
0.04248635
0.04231219
0.04215145
0.04205549
0.04195498
0.04188905
0.04190691
0.04193657
0.04209434
0.04220561
0.04254380
0.04303446
0.04368735
0.04472832
0.04623524
0.04854313
0.05211797
0.05758842
0.06515831
0.07196645
0.07015374
0.05478469
0.03345115
0.01594286
0.00616750
0.00210471
0.00067702
0.00021139
0.00006443
0.00001928
0.00000569
0.00000165
0.00000048
0.00000014
0.00000004
0.00000001
0.00000000
0.00000000
0.00000000
0.00000000
0.00000000
0.00000000
0.00000000
0.00000000
0.00000000
0.00000000
0.00000000
0.00000000
0.00000000
0.00000000
0.00000000
0.00000000
0.00000000
0.00000000
0.00000000
0.00000000
0.00000000
0.00000000
0.00000000
0.00000000
0.00000000
0.00000000
0.00000000
0.00000000
0.00000000
0.00000000
0.00000000
0.00000000
0.00000000
0.00000000
0.00000000
0.00000000
0.00000000
0.00000000
0.00000000
0.00000000
0.00000000
0.00000000
0.00000000
0.00000000
0.00000000
0.00000000
0.00000000
0.00000000
0.00000000
0.00000000
0.00000000
0.00000000
0.00000000
0.00000000
0.00000000
0.00000000
0.00000000
0.00000000
0.00000000
0.00000000
0.00000000
0.00000000
0.00000000
0.00000000
0.00000000
0.00000000
0.00000000
0.00000000
0.00000000
1.00000000
1.00000000
1.00000000
1.00000000
1.00000000
1.00000000
1.00000000
1.00000000
1.00000000
1.00000000
1.00000000
1.00000000
1.00000000
1.00000000
1.00000000
1.00000000
1.00000000
1.00000000
1.00000000
1.00000000
1.00000000
1.00000000
1.00000000
1.00000000
1.00000000
1.00000000
1.00000000
1.00000000
1.00000000
1.00000000
1.00000000
1.00000000
1.00000000
1.00000000
1.00000000
1.00000000
1.00000000
1.00000000
1.00000000
1.00000000
1.00000000
1.00000000
1.00000000
1.00000000
1.00000000
1.00000000
1.00000000
1.00000000
1.00000000
1.00000000
1.00000000
1.00000000
1.00000000
1.00000000
1.00000000
1.00000000
1.00000000
1.00000000
1.00000000
1.00000000
1.00000000
1.00000000
1.00000000
1.00000000
1.00000000
1.00000000
1.00000000
1.00000000
1.00000000
1.00000000
1.00000000
1.00000000
1.00000000
1.00000000
1.00000000
1.00000000
1.00000000
1.00000000
1.00000000
1.00000000
1.00000000
1.00000000
1.00000000
1.00000000
1.00000000
1.00000000
1.00000000
1.00000000
1.00000000
1.00000000
1.00000000
1.00000000
1.00000000
1.00000000
1.00000000
1.00000000
1.00000000
1.00000000
1.00000000
1.00000000
1.00000000
1.00000000
1.00000000
1.00000000
1.00000000
1.00000000
1.00000000
1.00000000
1.00000000
1.00000000
1.00000000
1.00000000
1.00000000
1.00000000
1.00000000
1.00000000
1.00000000
1.00000000
1.00000000
1.00000000
1.00000000
1.00000000
1.00000000
1.00000000
1.00000000
1.00000000
1.00000000
1.00000000
1.00000000
1.00000000
1.00000000
1.00000000
0.99999998
0.99999994
0.99999983
0.99999969
0.99999957
0.99999957
0.99999962
0.99999965
0.99999954
0.99999896
0.99999495
0.99997196
0.99984171
0.99911138
0.99505212
0.97303677
0.86255461
0.48340367
0.17948887
0.08984908
0.20491021
0.54353528
0.88536981
0.97735645
0.99513929
0.99644754
0.98457327
0.92235564
0.67588231
0.32173897
0.15387709
0.11427469
0.14062969
0.16982406
0.18902350
0.20197112
0.21218987
0.22089845
0.22946924
0.23684307
0.24362066
0.24939374
0.25421188
0.25804267
0.26164884
0.26399505
0.26562039
0.26693370
0.26770424
0.26817314
0.26836470
0.26793173
0.26755039
0.26699169
0.26597959
0.26476340
0.26365665
0.26236303
0.26067337
0.25910625
0.25749008
0.25569903
0.25397172
0.25190071
0.24962541
0.24742032
0.24513376
0.24269672
0.24022709
0.23801152
0.23587064
0.23321357
0.23075148
0.22846135
0.22621041
0.22370613
0.22141501
0.21948620
0.21746159
0.21556125
0.21406754
0.21217957
0.21071120
0.20973154
0.20849731
0.20750215
0.20662195
0.20557626
0.20488069
0.20433994
0.20371908
0.20334299
0.20279374
0.20245140
0.20229349
0.20197264
0.20167515
0.20146583
0.20153573
0.20165309
0.20140090
0.20159279
0.20182923
0.20180591
0.20187653
0.20215526
0.20250813
0.20277722
0.20311360
0.20352884
0.20377746
0.20435402
0.20454128
0.20524231
0.20565501
0.20592903
0.20651069
0.20676836
0.20741410
0.20770160
0.20797949
0.20826632
0.20873611
0.20912537
0.20921943
0.20943167
0.20963512
0.20963524
0.20967291
0.20973663
0.20966021
0.21006587
0.20982209
0.20978533
0.20993539
0.20972914
0.20937831
0.20928725
0.20912906
0.20875261
0.20840327
0.20823405
0.20792985
0.20764556
0.20734480
0.20692532
0.20651059
0.20595993
0.20562893
0.20508771
0.20459459
0.20421773
0.20355917
0.20307988
0.20239042
0.20198269
0.20125805
0.20059622
0.19988956
0.19938599
0.19868892
0.19817190
0.19747864
0.19702076
0.19637942
0.19601995
0.19551122
0.19554472
0.19541849
0.19565113
0.19578265
0.19655551
0.19742991
0.19839567
0.20003606
0.20206604
0.20477551
0.20755185
0.21078272
0.21304810
0.20926690
0.19085197
0.14927938
0.09352910
0.04509350
0.01689257
0.00535981
0.00159436
0.00046423
0.00013374
0.00003821
0.00001082
0.00000305
0.00000085
0.00000024
0.00000007
0.00000002
0.00000000
0.00000000
0.00000000
0.00000000
0.00000000
0.00000000
0.00000000
0.00000000
0.00000000
0.00000000
0.00000000
0.00000000
0.00000000
0.00000000
0.00000000
0.00000000
0.00000000
0.00000000
0.00000000
0.00000000
0.00000000
0.00000000
0.00000000
0.00000000
0.00000000
0.00000000
0.00000000
0.00000000
0.00000000
0.00000000
0.00000000
0.00000000
0.00000000
0.00000000
0.00000000
0.00000000
0.00000000
0.00000000
0.00000000
0.00000000
0.00000000
0.00000000
0.00000000
0.00000000
0.00000000
0.00000000
0.00000000
0.00000000
0.00000000
0.00000000
0.00000000
0.00000000
0.00000000
0.00000000
0.00000000
0.00000000
0.00000000
0.00000000
0.00000000
0.00000000
0.00000000
0.00000000
0.00000000
0.00000000
0.00000000
0.00000000
0.00000000
0.00000000
0.00000000
1.00000000
1.00000000
1.00000000
1.00000000
1.00000000
1.00000000
1.00000000
1.00000000
1.00000000
1.00000000
1.00000000
1.00000000
1.00000000
1.00000000
1.00000000
1.00000000
1.00000000
1.00000000
1.00000000
1.00000000
1.00000000
1.00000000
1.00000000
1.00000000
1.00000000
1.00000000
1.00000000
1.00000000
1.00000000
1.00000000
1.00000000
1.00000000
1.00000000
1.00000000
1.00000000
1.00000000
1.00000000
1.00000000
1.00000000
1.00000000
1.00000000
1.00000000
1.00000000
1.00000000
1.00000000
1.00000000
1.00000000
1.00000000
1.00000000
1.00000000
1.00000000
1.00000000
1.00000000
1.00000000
1.00000000
1.00000000
1.00000000
1.00000000
1.00000000
1.00000000
1.00000000
1.00000000
1.00000000
1.00000000
1.00000000
1.00000000
1.00000000
1.00000000
1.00000000
1.00000000
1.00000000
1.00000000
1.00000000
1.00000000
1.00000000
1.00000000
1.00000000
1.00000000
1.00000000
1.00000000
1.00000000
1.00000000
1.00000000
1.00000000
1.00000000
1.00000000
1.00000000
1.00000000
1.00000000
1.00000000
1.00000000
1.00000000
1.00000000
1.00000000
1.00000000
1.00000000
1.00000000
1.00000000
1.00000000
1.00000000
1.00000000
1.00000000
1.00000000
1.00000000
1.00000000
1.00000000
1.00000000
1.00000000
1.00000000
1.00000000
1.00000000
1.00000000
1.00000000
1.00000000
1.00000000
1.00000000
1.00000000
1.00000000
1.00000000
1.00000000
1.00000000
1.00000000
1.00000000
1.00000000
1.00000000
1.00000000
1.00000000
1.00000000
1.00000000
1.00000000
1.00000000
0.99999998
0.99999990
0.99999962
0.99999900
0.99999817
0.99999751
0.99999755
0.99999788
0.99999816
0.99999834
0.99999835
0.99999750
0.99999147
0.99995462
0.99974754
0.99860200
0.99238161
0.96022413
0.82678021
0.57070587
0.38596440
0.60696346
0.85307644
0.96727720
0.99361984
0.99860030
0.99904391
0.99623265
0.98152449
0.91925128
0.78271661
0.62331739
0.54284967
0.63552485
0.71169343
0.74797264
0.76572168
0.77746111
0.78627762
0.79329884
0.79929878
0.80410823
0.80820697
0.81127437
0.81363981
0.81580520
0.81718942
0.81809229
0.81883538
0.81936268
0.81935089
0.81941933
0.81949112
0.81913991
0.81888209
0.81832457
0.81764963
0.81710208
0.81642338
0.81554816
0.81455431
0.81371610
0.81238305
0.81119350
0.80999543
0.80877931
0.80727268
0.80574251
0.80411846
0.80233952
0.80054396
0.79893374
0.79677325
0.79491623
0.79295038
0.79098461
0.78905431
0.78683451
0.78487607
0.78299855
0.78108798
0.77933515
0.77769536
0.77626676
0.77472188
0.77356245
0.77242335
0.77145754
0.77035602
0.76963030
0.76877850
0.76813002
0.76755713
0.76713931
0.76648430
0.76615267
0.76581696
0.76553852
0.76537853
0.76532656
0.76525886
0.76514906
0.76525659
0.76549955
0.76537641
0.76582905
0.76601248
0.76644613
0.76668650
0.76706510
0.76752556
0.76816882
0.76880027
0.76915286
0.76969636
0.77027094
0.77066780
0.77133216
0.77168445
0.77225054
0.77257136
0.77303642
0.77347470
0.77387666
0.77445688
0.77467101
0.77490876
0.77522585
0.77509572
0.77520076
0.77532918
0.77540996
0.77535329
0.77535753
0.77536276
0.77523343
0.77517585
0.77480642
0.77478017
0.77453304
0.77432269
0.77392758
0.77356870
0.77320539
0.77303844
0.77257164
0.77180410
0.77152965
0.77092863
0.77034971
0.77003325
0.76921770
0.76855550
0.76806980
0.76732316
0.76635684
0.76582526
0.76478672
0.76396412
0.76299623
0.76221149
0.76130326
0.76048153
0.75946231
0.75855046
0.75760267
0.75680031
0.75621856
0.75541909
0.75494555
0.75468418
0.75396160
0.75359203
0.75279399
0.75147195
0.74923324
0.74505275
0.73762989
0.72422814
0.70100249
0.66253803
0.60506389
0.52494059
0.41879095
0.28411904
0.14804258
0.05699777
0.01744192
0.00486665
0.00132916
0.00036124
0.00009800
0.00002653
0.00000717
0.00000193
0.00000052
0.00000014
0.00000004
0.00000001
0.00000000
0.00000000
0.00000000
0.00000000
0.00000000
0.00000000
0.00000000
0.00000000
0.00000000
0.00000000
0.00000000
0.00000000
0.00000000
0.00000000
0.00000000
0.00000000
0.00000000
0.00000000
0.00000000
0.00000000
0.00000000
0.00000000
0.00000000
0.00000000
0.00000000
0.00000000
0.00000000
0.00000000
0.00000000
0.00000000
0.00000000
0.00000000
0.00000000
0.00000000
0.00000000
0.00000000
0.00000000
0.00000000
0.00000000
0.00000000
0.00000000
0.00000000
0.00000000
0.00000000
0.00000000
0.00000000
0.00000000
0.00000000
0.00000000
0.00000000
0.00000000
0.00000000
0.00000000
0.00000000
0.00000000
0.00000000
0.00000000
0.00000000
0.00000000
0.00000000
0.00000000
0.00000000
0.00000000
0.00000000
0.00000000
0.00000000
0.00000000
0.00000000
1.00000000
1.00000000
1.00000000
1.00000000
1.00000000
1.00000000
1.00000000
1.00000000
1.00000000
1.00000000
1.00000000
1.00000000
1.00000000
1.00000000
1.00000000
1.00000000
1.00000000
1.00000000
1.00000000
1.00000000
1.00000000
1.00000000
1.00000000
1.00000000
1.00000000
1.00000000
1.00000000
1.00000000
1.00000000
1.00000000
1.00000000
1.00000000
1.00000000
1.00000000
1.00000000
1.00000000
1.00000000
1.00000000
1.00000000
1.00000000
1.00000000
1.00000000
1.00000000
1.00000000
1.00000000
1.00000000
1.00000000
1.00000000
1.00000000
1.00000000
1.00000000
1.00000000
1.00000000
1.00000000
1.00000000
1.00000000
1.00000000
1.00000000
1.00000000
1.00000000
1.00000000
1.00000000
1.00000000
1.00000000
1.00000000
1.00000000
1.00000000
1.00000000
1.00000000
1.00000000
1.00000000
1.00000000
1.00000000
1.00000000
1.00000000
1.00000000
1.00000000
1.00000000
1.00000000
1.00000000
1.00000000
1.00000000
1.00000000
1.00000000
1.00000000
1.00000000
1.00000000
1.00000000
1.00000000
1.00000000
1.00000000
1.00000000
1.00000000
1.00000000
1.00000000
1.00000000
1.00000000
1.00000000
1.00000000
1.00000000
1.00000000
1.00000000
1.00000000
1.00000000
1.00000000
1.00000000
1.00000000
1.00000000
1.00000000
1.00000000
1.00000000
1.00000000
1.00000000
1.00000000
1.00000000
1.00000000
1.00000000
1.00000000
1.00000000
1.00000000
1.00000000
1.00000000
1.00000000
1.00000000
1.00000000
1.00000000
1.00000000
1.00000000
1.00000000
1.00000000
0.99999998
0.99999988
0.99999939
0.99999766
0.99999402
0.99998925
0.99998550
0.99998594
0.99998801
0.99998969
0.99999094
0.99999230
0.99999396
0.99999430
0.99998819
0.99994226
0.99969391
0.99838891
0.99184422
0.96419135
0.90086105
0.84201114
0.91068776
0.96980451
0.99325671
0.99862919
0.99967865
0.99977418
0.99921412
0.99635600
0.98446196
0.95626000
0.91928945
0.90104123
0.92444186
0.94277287
0.95146960
0.95570976
0.95848631
0.96053051
0.96217070
0.96353844
0.96458321
0.96546499
0.96614543
0.96667145
0.96712098
0.96743104
0.96765684
0.96780358
0.96788290
0.96791898
0.96794936
0.96796132
0.96788822
0.96782185
0.96770295
0.96756850
0.96744351
0.96731154
0.96713081
0.96690223
0.96672267
0.96646831
0.96621943
0.96594641
0.96565533
0.96535920
0.96499894
0.96464010
0.96424905
0.96387350
0.96348840
0.96305197
0.96260204
0.96215594
0.96167289
0.96127006
0.96078925
0.96030371
0.95985020
0.95943838
0.95902685
0.95865705
0.95828712
0.95793185
0.95763892
0.95732880
0.95711087
0.95687527
0.95667219
0.95650198
0.95633532
0.95623141
0.95609944
0.95592800
0.95586037
0.95579817
0.95571789
0.95565350
0.95566514
0.95565415
0.95560222
0.95562799
0.95564885
0.95564547
0.95573892
0.95580389
0.95589614
0.95597007
0.95603750
0.95619806
0.95629928
0.95646030
0.95651793
0.95668085
0.95682672
0.95693960
0.95709064
0.95724369
0.95731979
0.95742163
0.95754446
0.95763174
0.95777461
0.95788084
0.95797044
0.95803403
0.95808385
0.95809843
0.95811621
0.95810380
0.95816244
0.95814257
0.95814419
0.95813159
0.95812269
0.95810354
0.95801101
0.95795420
0.95797620
0.95787418
0.95776453
0.95771223
0.95761185
0.95756799
0.95747688
0.95730997
0.95719976
0.95706121
0.95694102
0.95681511
0.95661261
0.95653364
0.95633086
0.95613330
0.95592356
0.95574193
0.95548213
0.95531032
0.95507722
0.95486057
0.95459080
0.95437256
0.95413745
0.95385937
0.95363301
0.95334215
0.95317695
0.95292259
0.95267188
0.95251533
0.95225538
0.95200825
0.95165673
0.95100519
0.95011464
0.94854265
0.94599500
0.94138967
0.93363136
0.92044140
0.89731218
0.85322904
0.76724388
0.61734201
0.39795673
0.17741771
0.05602741
0.01508080
0.00391852
0.00101532
0.00026390
0.00006875
0.00001790
0.00000467
0.00000122
0.00000032
0.00000008
0.00000002
0.00000001
0.00000000
0.00000000
0.00000000
0.00000000
0.00000000
0.00000000
0.00000000
0.00000000
0.00000000
0.00000000
0.00000000
0.00000000
0.00000000
0.00000000
0.00000000
0.00000000
0.00000000
0.00000000
0.00000000
0.00000000
0.00000000
0.00000000
0.00000000
0.00000000
0.00000000
0.00000000
0.00000000
0.00000000
0.00000000
0.00000000
0.00000000
0.00000000
0.00000000
0.00000000
0.00000000
0.00000000
0.00000000
0.00000000
0.00000000
0.00000000
0.00000000
0.00000000
0.00000000
0.00000000
0.00000000
0.00000000
0.00000000
0.00000000
0.00000000
0.00000000
0.00000000
0.00000000
0.00000000
0.00000000
0.00000000
0.00000000
0.00000000
0.00000000
0.00000000
0.00000000
0.00000000
0.00000000
0.00000000
0.00000000
0.00000000
0.00000000
0.00000000
1.00000000
1.00000000
1.00000000
1.00000000
1.00000000
1.00000000
1.00000000
1.00000000
1.00000000
1.00000000
1.00000000
1.00000000
1.00000000
1.00000000
1.00000000
1.00000000
1.00000000
1.00000000
1.00000000
1.00000000
1.00000000
1.00000000
1.00000000
1.00000000
1.00000000
1.00000000
1.00000000
1.00000000
1.00000000
1.00000000
1.00000000
1.00000000
1.00000000
1.00000000
1.00000000
1.00000000
1.00000000
1.00000000
1.00000000
1.00000000
1.00000000
1.00000000
1.00000000
1.00000000
1.00000000
1.00000000
1.00000000
1.00000000
1.00000000
1.00000000
1.00000000
1.00000000
1.00000000
1.00000000
1.00000000
1.00000000
1.00000000
1.00000000
1.00000000
1.00000000
1.00000000
1.00000000
1.00000000
1.00000000
1.00000000
1.00000000
1.00000000
1.00000000
1.00000000
1.00000000
1.00000000
1.00000000
1.00000000
1.00000000
1.00000000
1.00000000
1.00000000
1.00000000
1.00000000
1.00000000
1.00000000
1.00000000
1.00000000
1.00000000
1.00000000
1.00000000
1.00000000
1.00000000
1.00000000
1.00000000
1.00000000
1.00000000
1.00000000
1.00000000
1.00000000
1.00000000
1.00000000
1.00000000
1.00000000
1.00000000
1.00000000
1.00000000
1.00000000
1.00000000
1.00000000
1.00000000
1.00000000
1.00000000
1.00000000
1.00000000
1.00000000
1.00000000
1.00000000
1.00000000
1.00000000
1.00000000
1.00000000
1.00000000
1.00000000
1.00000000
1.00000000
1.00000000
1.00000000
1.00000000
1.00000000
1.00000000
1.00000000
1.00000000
1.00000000
0.99999998
0.99999987
0.99999923
0.99999615
0.99998561
0.99996433
0.99993689
0.99991553
0.99991923
0.99993211
0.99994208
0.99994930
0.99995719
0.99996819
0.99997962
0.99998583
0.99998131
0.99993483
0.99968429
0.99846651
0.99340890
0.98129573
0.96982992
0.98319669
0.99443002
0.99871794
0.99972697
0.99993104
0.99994948
0.99984435
0.99931787
0.99718713
0.99202347
0.98521524
0.98210730
0.98633751
0.98974017
0.99141361
0.99224642
0.99278901
0.99318768
0.99349869
0.99376661
0.99396576
0.99413438
0.99426168
0.99436616
0.99444587
0.99450540
0.99454176
0.99457763
0.99459309
0.99460231
0.99460603
0.99460667
0.99459229
0.99458258
0.99456391
0.99454327
0.99451452
0.99449489
0.99445907
0.99441883
0.99438575
0.99433993
0.99428560
0.99424346
0.99418538
0.99412634
0.99406032
0.99399462
0.99392676
0.99384582
0.99377557
0.99368917
0.99361138
0.99351794
0.99342984
0.99335037
0.99325086
0.99316465
0.99307856
0.99299553
0.99291860
0.99284612
0.99276826
0.99269830
0.99264196
0.99258986
0.99253877
0.99249507
0.99245097
0.99241748
0.99238019
0.99236399
0.99233425
0.99229770
0.99227934
0.99226676
0.99225511
0.99223509
0.99223262
0.99223928
0.99222556
0.99222778
0.99223428
0.99224314
0.99225346
0.99226498
0.99228315
0.99229453
0.99231195
0.99234315
0.99237252
0.99239892
0.99240912
0.99244821
0.99247207
0.99249871
0.99253241
0.99256692
0.99258000
0.99260810
0.99263210
0.99265651
0.99268057
0.99269934
0.99272107
0.99273414
0.99274080
0.99274878
0.99275630
0.99275414
0.99276770
0.99276837
0.99276442
0.99276819
0.99276066
0.99275506
0.99274287
0.99272646
0.99272801
0.99270659
0.99269295
0.99267068
0.99265828
0.99264824
0.99262843
0.99259552
0.99257149
0.99254434
0.99251973
0.99249744
0.99245747
0.99243072
0.99238858
0.99234570
0.99230757
0.99227010
0.99221205
0.99217161
0.99212305
0.99207009
0.99201396
0.99196559
0.99190996
0.99184639
0.99178620
0.99171863
0.99167357
0.99161350
0.99154795
0.99149356
0.99140984
0.99131516
0.99120962
0.99102894
0.99077588
0.99037146
0.98971787
0.98858778
0.98669680
0.98340472
0.97707517
0.96319293
0.93084253
0.85575167
0.69522221
0.41724467
0.15355923
0.04207120
0.01066164
0.00267082
0.00067125
0.00016964
0.00004294
0.00001089
0.00000277
0.00000070
0.00000018
0.00000005
0.00000001
0.00000000
0.00000000
0.00000000
0.00000000
0.00000000
0.00000000
0.00000000
0.00000000
0.00000000
0.00000000
0.00000000
0.00000000
0.00000000
0.00000000
0.00000000
0.00000000
0.00000000
0.00000000
0.00000000
0.00000000
0.00000000
0.00000000
0.00000000
0.00000000
0.00000000
0.00000000
0.00000000
0.00000000
0.00000000
0.00000000
0.00000000
0.00000000
0.00000000
0.00000000
0.00000000
0.00000000
0.00000000
0.00000000
0.00000000
0.00000000
0.00000000
0.00000000
0.00000000
0.00000000
0.00000000
0.00000000
0.00000000
0.00000000
0.00000000
0.00000000
0.00000000
0.00000000
0.00000000
0.00000000
0.00000000
0.00000000
0.00000000
0.00000000
0.00000000
0.00000000
0.00000000
0.00000000
0.00000000
0.00000000
0.00000000
0.00000000
0.00000000
1.00000000
1.00000000
1.00000000
1.00000000
1.00000000
1.00000000
1.00000000
1.00000000
1.00000000
1.00000000
1.00000000
1.00000000
1.00000000
1.00000000
1.00000000
1.00000000
1.00000000
1.00000000
1.00000000
1.00000000
1.00000000
1.00000000
1.00000000
1.00000000
1.00000000
1.00000000
1.00000000
1.00000000
1.00000000
1.00000000
1.00000000
1.00000000
1.00000000
1.00000000
1.00000000
1.00000000
1.00000000
1.00000000
1.00000000
1.00000000
1.00000000
1.00000000
1.00000000
1.00000000
1.00000000
1.00000000
1.00000000
1.00000000
1.00000000
1.00000000
1.00000000
1.00000000
1.00000000
1.00000000
1.00000000
1.00000000
1.00000000
1.00000000
1.00000000
1.00000000
1.00000000
1.00000000
1.00000000
1.00000000
1.00000000
1.00000000
1.00000000
1.00000000
1.00000000
1.00000000
1.00000000
1.00000000
1.00000000
1.00000000
1.00000000
1.00000000
1.00000000
1.00000000
1.00000000
1.00000000
1.00000000
1.00000000
1.00000000
1.00000000
1.00000000
1.00000000
1.00000000
1.00000000
1.00000000
1.00000000
1.00000000
1.00000000
1.00000000
1.00000000
1.00000000
1.00000000
1.00000000
1.00000000
1.00000000
1.00000000
1.00000000
1.00000000
1.00000000
1.00000000
1.00000000
1.00000000
1.00000000
1.00000000
1.00000000
1.00000000
1.00000000
1.00000000
1.00000000
1.00000000
1.00000000
1.00000000
1.00000000
1.00000000
1.00000000
1.00000000
1.00000000
1.00000000
1.00000000
1.00000000
1.00000000
1.00000000
1.00000000
1.00000000
0.99999998
0.99999987
0.99999916
0.99999514
0.99997580
0.99991186
0.99978789
0.99963078
0.99950795
0.99953623
0.99961500
0.99967397
0.99971451
0.99975912
0.99982169
0.99988898
0.99993613
0.99995955
0.99996419
0.99993087
0.99971256
0.99882102
0.99663366
0.99460659
0.99697805
0.99900080
0.99976232
0.99994604
0.99998413
0.99998747
0.99996835
0.99987362
0.99949882
0.99858318
0.99737710
0.99687171
0.99759284
0.99819423
0.99850364
0.99866030
0.99876121
0.99883540
0.99889333
0.99894224
0.99897966
0.99900976
0.99903409
0.99905315
0.99906791
0.99907856
0.99908620
0.99909185
0.99909569
0.99909698
0.99909822
0.99909801
0.99909620
0.99909473
0.99909097
0.99908696
0.99908204
0.99907794
0.99907228
0.99906519
0.99905890
0.99905087
0.99904180
0.99903370
0.99902334
0.99901241
0.99900087
0.99898894
0.99897545
0.99896204
0.99894912
0.99893347
0.99891830
0.99890276
0.99888532
0.99887124
0.99885285
0.99883640
0.99882093
0.99880399
0.99879167
0.99877626
0.99876109
0.99874881
0.99873761
0.99872851
0.99871746
0.99870990
0.99870132
0.99869591
0.99868922
0.99868314
0.99867750
0.99867147
0.99866796
0.99866409
0.99866249
0.99865865
0.99865628
0.99865800
0.99865518
0.99865607
0.99865618
0.99865679
0.99865965
0.99866232
0.99866569
0.99866758
0.99867156
0.99867679
0.99868265
0.99868819
0.99869107
0.99869851
0.99870308
0.99870945
0.99871471
0.99872164
0.99872552
0.99873129
0.99873747
0.99874268
0.99874684
0.99875102
0.99875564
0.99875845
0.99876017
0.99876276
0.99876505
0.99876447
0.99876629
0.99876607
0.99876512
0.99876631
0.99876502
0.99876391
0.99876117
0.99875849
0.99875917
0.99875561
0.99875134
0.99874779
0.99874550
0.99874234
0.99873961
0.99873213
0.99872765
0.99872263
0.99871709
0.99871188
0.99870549
0.99869907
0.99869058
0.99868176
0.99867456
0.99866557
0.99865476
0.99864561
0.99863462
0.99862506
0.99861235
0.99860120
0.99858917
0.99857521
0.99856122
0.99854633
0.99853374
0.99851720
0.99850039
0.99848591
0.99846361
0.99844109
0.99840902
0.99836498
0.99830219
0.99820293
0.99805018
0.99779558
0.99736055
0.99656940
0.99490921
0.99095212
0.98063045
0.95226641
0.87399113
0.67754074
0.32823681
0.09792145
0.02492351
0.00613708
0.00150725
0.00037205
0.00009215
0.00002288
0.00000569
0.00000142
0.00000035
0.00000009
0.00000002
0.00000001
0.00000000
0.00000000
0.00000000
0.00000000
0.00000000
0.00000000
0.00000000
0.00000000
0.00000000
0.00000000
0.00000000
0.00000000
0.00000000
0.00000000
0.00000000
0.00000000
0.00000000
0.00000000
0.00000000
0.00000000
0.00000000
0.00000000
0.00000000
0.00000000
0.00000000
0.00000000
0.00000000
0.00000000
0.00000000
0.00000000
0.00000000
0.00000000
0.00000000
0.00000000
0.00000000
0.00000000
0.00000000
0.00000000
0.00000000
0.00000000
0.00000000
0.00000000
0.00000000
0.00000000
0.00000000
0.00000000
0.00000000
0.00000000
0.00000000
0.00000000
0.00000000
0.00000000
0.00000000
0.00000000
0.00000000
0.00000000
0.00000000
0.00000000
0.00000000
0.00000000
0.00000000
0.00000000
0.00000000
0.00000000
0.00000000
0.00000000
1.00000000
1.00000000
1.00000000
1.00000000
1.00000000
1.00000000
1.00000000
1.00000000
1.00000000
1.00000000
1.00000000
1.00000000
1.00000000
1.00000000
1.00000000
1.00000000
1.00000000
1.00000000
1.00000000
1.00000000
1.00000000
1.00000000
1.00000000
1.00000000
1.00000000
1.00000000
1.00000000
1.00000000
1.00000000
1.00000000
1.00000000
1.00000000
1.00000000
1.00000000
1.00000000
1.00000000
1.00000000
1.00000000
1.00000000
1.00000000
1.00000000
1.00000000
1.00000000
1.00000000
1.00000000
1.00000000
1.00000000
1.00000000
1.00000000
1.00000000
1.00000000
1.00000000
1.00000000
1.00000000
1.00000000
1.00000000
1.00000000
1.00000000
1.00000000
1.00000000
1.00000000
1.00000000
1.00000000
1.00000000
1.00000000
1.00000000
1.00000000
1.00000000
1.00000000
1.00000000
1.00000000
1.00000000
1.00000000
1.00000000
1.00000000
1.00000000
1.00000000
1.00000000
1.00000000
1.00000000
1.00000000
1.00000000
1.00000000
1.00000000
1.00000000
1.00000000
1.00000000
1.00000000
1.00000000
1.00000000
1.00000000
1.00000000
1.00000000
1.00000000
1.00000000
1.00000000
1.00000000
1.00000000
1.00000000
1.00000000
1.00000000
1.00000000
1.00000000
1.00000000
1.00000000
1.00000000
1.00000000
1.00000000
1.00000000
1.00000000
1.00000000
1.00000000
1.00000000
1.00000000
1.00000000
1.00000000
1.00000000
1.00000000
1.00000000
1.00000000
1.00000000
1.00000000
1.00000000
1.00000000
1.00000000
1.00000000
1.00000000
0.99999998
0.99999988
0.99999917
0.99999473
0.99996939
0.99984871
0.99946438
0.99874446
0.99784975
0.99714037
0.99734014
0.99781915
0.99816222
0.99838848
0.99863911
0.99899222
0.99937676
0.99964846
0.99979008
0.99986955
0.99990973
0.99989751
0.99976144
0.99937867
0.99903793
0.99945235
0.99981217
0.99995015
0.99998123
0.99998779
0.99998859
0.99998454
0.99996978
0.99990327
0.99974241
0.99953286
0.99945012
0.99957178
0.99967669
0.99973299
0.99976242
0.99978136
0.99979498
0.99980596
0.99981500
0.99982192
0.99982765
0.99983215
0.99983571
0.99983838
0.99984029
0.99984173
0.99984292
0.99984359
0.99984393
0.99984411
0.99984417
0.99984390
0.99984370
0.99984293
0.99984225
0.99984153
0.99984064
0.99983966
0.99983835
0.99983715
0.99983577
0.99983425
0.99983265
0.99983090
0.99982903
0.99982678
0.99982477
0.99982229
0.99981973
0.99981754
0.99981516
0.99981299
0.99981122
0.99980931
0.99980721
0.99980416
0.99980119
0.99979832
0.99979514
0.99979270
0.99979001
0.99978726
0.99978475
0.99978286
0.99978083
0.99977908
0.99977729
0.99977581
0.99977465
0.99977372
0.99977222
0.99977113
0.99976986
0.99976915
0.99976855
0.99976800
0.99976738
0.99976678
0.99976655
0.99976623
0.99976612
0.99976614
0.99976625
0.99976670
0.99976712
0.99976759
0.99976773
0.99976859
0.99976952
0.99977038
0.99977124
0.99977230
0.99977363
0.99977466
0.99977592
0.99977733
0.99977846
0.99977927
0.99978017
0.99978140
0.99978252
0.99978365
0.99978449
0.99978516
0.99978567
0.99978627
0.99978670
0.99978709
0.99978719
0.99978752
0.99978773
0.99978727
0.99978754
0.99978727
0.99978711
0.99978659
0.99978633
0.99978630
0.99978560
0.99978482
0.99978406
0.99978371
0.99978295
0.99978222
0.99978108
0.99977995
0.99977931
0.99977783
0.99977691
0.99977568
0.99977428
0.99977273
0.99977123
0.99976937
0.99976768
0.99976530
0.99976358
0.99976116
0.99975901
0.99975656
0.99975413
0.99975132
0.99974848
0.99974532
0.99974205
0.99973883
0.99973513
0.99973099
0.99972730
0.99972168
0.99971564
0.99970755
0.99969679
0.99968153
0.99965801
0.99962217
0.99956233
0.99945588
0.99924560
0.99875662
0.99749416
0.99392393
0.98303433
0.94823792
0.83745933
0.53135371
0.18168984
0.04725596