# vtk DataFile Version 3.0
Concentration output
ASCII
DATASET STRUCTURED_POINTS
DIMENSIONS 398 98 1
ORIGIN 0 0 0
SPACING 0.03 0.03 1.0
POINT_DATA 39004
SCALARS Variable float 1
LOOKUP_TABLE default
0.00000198
0.00000209
0.00000230
0.00000264
0.00000311
0.00000375
0.00000456
0.00000559
0.00000689
0.00000850
0.00001049
0.00001294
0.00001594
0.00001961
0.00002409
0.00002953
0.00003613
0.00004411
0.00005374
0.00006535
0.00007930
0.00009601
0.00011601
0.00013988
0.00016831
0.00020209
0.00024213
0.00028950
0.00034540
0.00041124
0.00048860
0.00057929
0.00068537
0.00080919
0.00095337
0.00112090
0.00131512
0.00153977
0.00179905
0.00209761
0.00244064
0.00283387
0.00328365
0.00379694
0.00438140
0.00504540
0.00579808
0.00664934
0.00760994
0.00869147
0.00990643
0.01126819
0.01279104
0.01449020
0.01638180
0.01848287
0.02081135
0.02338599
0.02622638
0.02935286
0.03278643
0.03654871
0.04066181
0.04514823
0.05003072
0.05533217
0.06107542
0.06728312
0.07397752
0.08118030
0.08891238
0.09719368
0.10604293
0.11547742
0.12551284
0.13616299
0.14743961
0.15935216
0.17190762
0.18511031
0.19896175
0.21346043
0.22860180
0.24437805
0.26077815
0.27778770
0.29538900
0.31356101
0.33227941
0.35151669
0.37124224
0.39142250
0.41202111
0.43299909
0.45431508
0.47592555
0.49778503
0.51984642
0.54206127
0.56438007
0.58675259
0.60912825
0.63145649
0.65368719
0.67577118
0.69766072
0.71931018
0.74067671
0.76172119
0.78240930
0.80271298
0.82261234
0.84209831
0.86117649
0.87987281
0.89824225
0.91638288
0.93445915
0.95274252
0.97167953
0.99195541
1.01413516
1.03533884
1.03795939
1.03074451
1.02147412
1.01270342
1.00576839
1.00112314
0.99906697
0.99952853
1.00168204
1.00533405
1.01024041
1.01580622
1.02124855
1.02390378
1.02405507
1.02383373
1.02349271
1.02323373
1.02313279
1.02263608
1.02217247
1.02118170
1.01986903
1.01759595
1.01468143
1.01173658
1.00932331
1.00832372
1.00789271
1.00782239
1.00734755
1.00660564
1.00590281
1.00518595
1.00451774
1.00357003
1.00256936
1.00137942
1.00022921
0.99938525
0.99850414
0.99798405
0.99747802
0.99700680
0.99661934
0.99627051
0.99582591
0.99494811
0.99337692
0.99070787
0.98568015
0.97665509
0.96021317
0.92938387
0.87087611
0.77526557
0.64845307
0.51149643
0.38512921
0.28005177
0.19846706
0.13801870
0.09467158
0.06429802
0.04336195
0.02909879
0.01946193
0.01298865
0.00865784
0.00576813
0.00384319
0.00256204
0.00170959
0.00114226
0.00076445
0.00051259
0.00034447
0.00023207
0.00015678
0.00010624
0.00007223
0.00004927
0.00003374
0.00002319
0.00001601
0.00001110
0.00000772
0.00000540
0.00000379
0.00000267
0.00000189
0.00000134
0.00000096
0.00000068
0.00000049
0.00000035
0.00000025
0.00000018
0.00000013
0.00000010
0.00000007
0.00000005
0.00000004
0.00000003
0.00000002
0.00000001
0.00000001
0.00000001
0.00000001
0.00000000
0.00000000
0.00000000
0.00000000
0.00000000
0.00000000
0.00000000
0.00000000
0.00000000
0.00000000
0.00000000
0.00000000
0.00000000
0.00000000
0.00000000
0.00000000
0.00000000
0.00000000
0.00000000
0.00000000
0.00000000
0.00000000
0.00000000
0.00000000
0.00000000
0.00000000
0.00000000
0.00000000
0.00000000
0.00000000
0.00000000
0.00000000
0.00000000
0.00000000
0.00000000
0.00000000
0.00000000
0.00000000
0.00000000
0.00000000
0.00000000
0.00000000
0.00000000
0.00000000
0.00000000
0.00000000
0.00000000
0.00000000
0.00000000
0.00000000
0.00000000
0.00000000
0.00000000
0.00000000
0.00000000
0.00000000
0.00000000
0.00000000
0.00000000
0.00000000
0.00000000
0.00000000
0.00000000
0.00000000
0.00000000
0.00000000
0.00000000
0.00000000
0.00000000
0.00000000
0.00000000
0.00000000
0.00000000
0.00000000
0.00000000
0.00000000
0.00000000
0.00000000
0.00000000
0.00000000
0.00000000
0.00000000
0.00000000
0.00000000
0.00000000
0.00000000
0.00000000
0.00000000
0.00000000
0.00000000
0.00000000
0.00000000
0.00000000
0.00000000
0.00000000
0.00000000
0.00000000
0.00000000
0.00000000
0.00000000
0.00000000
0.00000000
0.00000000
0.00000000
0.00000000
0.00000000
0.00000000
0.00000000
0.00000000
0.00000000
0.00000000
0.00000000
0.00000000
0.00000000
0.00000000
0.00000000
0.00000000
0.00000000
0.00000000
0.00000000
0.00000000
0.00000000
0.00000000
0.00000000
0.00000000
0.00000000
0.00000000
0.00000000
0.00000000
0.00000000
0.00000000
0.00000000
0.00000000
0.00000000
0.00000000
0.00000000
0.00000000
0.00000000
0.00000000
0.00000000
0.00000000
0.00000000
0.00000000
0.00000000
0.00000000
0.00000000
0.00000000
0.00000000
0.00000000
0.00000000
0.00000000
0.00000000
0.00000000
0.00000000
0.00000000
0.00000000
0.00000000
0.00000000
0.00000000
0.00000000
0.00000000
0.00000000
0.00000000
0.00000000
0.00000000
0.00000000
0.00000198
0.00000209
0.00000230
0.00000264
0.00000311
0.00000375
0.00000456
0.00000559
0.00000689
0.00000850
0.00001049
0.00001294
0.00001594
0.00001961
0.00002409
0.00002953
0.00003613
0.00004411
0.00005374
0.00006535
0.00007930
0.00009601
0.00011601
0.00013988
0.00016831
0.00020209
0.00024213
0.00028950
0.00034540
0.00041124
0.00048860
0.00057929
0.00068537
0.00080919
0.00095337
0.00112090
0.00131512
0.00153977
0.00179905
0.00209761
0.00244064
0.00283387
0.00328365
0.00379694
0.00438140
0.00504540
0.00579808
0.00664934
0.00760994
0.00869147
0.00990643
0.01126819
0.01279104
0.01449020
0.01638180
0.01848288
0.02081135
0.02338600
0.02622639
0.02935287
0.03278644
0.03654873
0.04066183
0.04514825
0.05003075
0.05533220
0.06107546
0.06728316
0.07397756
0.08118035
0.08891244
0.09719374
0.10604299
0.11547749
0.12551291
0.13616306
0.14743968
0.15935222
0.17190767
0.18511035
0.19896176
0.21346041
0.22860172
0.24437791
0.26077792
0.27778736
0.29538852
0.31356034
0.33227852
0.35151552
0.37124074
0.39142060
0.41201872
0.43299614
0.45431146
0.47592113
0.49777969
0.51984002
0.54205365
0.56437103
0.58674192
0.60911570
0.63144175
0.65366991
0.67575089
0.69763683
0.71928189
0.74064295
0.76168042
0.78235929
0.80265043
0.82253223
0.84199288
0.86103347
0.87967239
0.89795160
0.91594581
0.93377552
0.95162416
0.96975320
0.98847118
1.00785059
1.02607358
1.03446723
1.02981481
1.02078104
1.01173279
1.00469119
1.00015786
0.99826060
0.99884621
1.00139065
1.00473903
1.00953445
1.01476067
1.01935703
1.02171476
1.02253717
1.02242575
1.02219773
1.02192591
1.02185905
1.02181820
1.02107627
1.02034416
1.01906042
1.01731029
1.01455474
1.01143089
1.00902743
1.00807351
1.00783515
1.00797724
1.00762153
1.00697545
1.00610533
1.00544382
1.00506510
1.00397828
1.00300417
1.00191629
1.00086500
0.99988389
0.99914002
0.99884622
0.99830667
0.99795332
0.99792804
0.99771769
0.99759112
0.99774990
0.99739994
0.99701366
0.99583589
0.99272545
0.98450770
0.96382350
0.91753950
0.83073867
0.70088368
0.55048179
0.40977246
0.29415159
0.20600731
0.14184931
0.09653359
0.06516413
0.04374410
0.02925483
0.01951714
0.01300174
0.00865526
0.00576113
0.00383611
0.00255627
0.00170532
0.00113926
0.00076240
0.00051123
0.00034358
0.00023150
0.00015641
0.00010600
0.00007207
0.00004918
0.00003368
0.00002316
0.00001598
0.00001108
0.00000771
0.00000539
0.00000378
0.00000267
0.00000189
0.00000134
0.00000095
0.00000068
0.00000049
0.00000035
0.00000025
0.00000018
0.00000013
0.00000010
0.00000007
0.00000005
0.00000004
0.00000003
0.00000002
0.00000001
0.00000001
0.00000001
0.00000001
0.00000000
0.00000000
0.00000000
0.00000000
0.00000000
0.00000000
0.00000000
0.00000000
0.00000000
0.00000000
0.00000000
0.00000000
0.00000000
0.00000000
0.00000000
0.00000000
0.00000000
0.00000000
0.00000000
0.00000000
0.00000000
0.00000000
0.00000000
0.00000000
0.00000000
0.00000000
0.00000000
0.00000000
0.00000000
0.00000000
0.00000000
0.00000000
0.00000000
0.00000000
0.00000000
0.00000000
0.00000000
0.00000000
0.00000000
0.00000000
0.00000000
0.00000000
0.00000000
0.00000000
0.00000000
0.00000000
0.00000000
0.00000000
0.00000000
0.00000000
0.00000000
0.00000000
0.00000000
0.00000000
0.00000000
0.00000000
0.00000000
0.00000000
0.00000000
0.00000000
0.00000000
0.00000000
0.00000000
0.00000000
0.00000000
0.00000000
0.00000000
0.00000000
0.00000000
0.00000000
0.00000000
0.00000000
0.00000000
0.00000000
0.00000000
0.00000000
0.00000000
0.00000000
0.00000000
0.00000000
0.00000000
0.00000000
0.00000000
0.00000000
0.00000000
0.00000000
0.00000000
0.00000000
0.00000000
0.00000000
0.00000000
0.00000000
0.00000000
0.00000000
0.00000000
0.00000000
0.00000000
0.00000000
0.00000000
0.00000000
0.00000000
0.00000000
0.00000000
0.00000000
0.00000000
0.00000000
0.00000000
0.00000000
0.00000000
0.00000000
0.00000000
0.00000000
0.00000000
0.00000000
0.00000000
0.00000000
0.00000000
0.00000000
0.00000000
0.00000000
0.00000000
0.00000000
0.00000000
0.00000000
0.00000000
0.00000000
0.00000000
0.00000000
0.00000000
0.00000000
0.00000000
0.00000000
0.00000000
0.00000000
0.00000000
0.00000000
0.00000000
0.00000000
0.00000000
0.00000000
0.00000000
0.00000000
0.00000000
0.00000000
0.00000000
0.00000000
0.00000000
0.00000000
0.00000000
0.00000000
0.00000000
0.00000000
0.00000000
0.00000000
0.00000000
0.00000000
0.00000000
0.00000000
0.00000000
0.00000000
0.00000000
0.00000000
0.00000000
0.00000000
0.00000000
0.00000000
0.00000198
0.00000209
0.00000230
0.00000264
0.00000311
0.00000375
0.00000456
0.00000559
0.00000689
0.00000850
0.00001049
0.00001294
0.00001594
0.00001961
0.00002409
0.00002953
0.00003613
0.00004411
0.00005374
0.00006535
0.00007930
0.00009601
0.00011601
0.00013988
0.00016831
0.00020209
0.00024213
0.00028950
0.00034540
0.00041124
0.00048860
0.00057929
0.00068537
0.00080919
0.00095337
0.00112090
0.00131512
0.00153977
0.00179905
0.00209761
0.00244064
0.00283387
0.00328365
0.00379694
0.00438140
0.00504541
0.00579808
0.00664934
0.00760994
0.00869148
0.00990643
0.01126819
0.01279105
0.01449021
0.01638181
0.01848289
0.02081136
0.02338601
0.02622641
0.02935289
0.03278647
0.03654876
0.04066186
0.04514829
0.05003080
0.05533226
0.06107552
0.06728323
0.07397765
0.08118045
0.08891254
0.09719386
0.10604312
0.11547763
0.12551305
0.13616320
0.14743982
0.15935235
0.17190778
0.18511043
0.19896178
0.21346036
0.22860157
0.24437763
0.26077747
0.27778668
0.29538755
0.31355902
0.33227675
0.35151321
0.37123777
0.39141683
0.41201400
0.43299028
0.45430427
0.47591239
0.49776915
0.51982738
0.54203859
0.56435319
0.58672088
0.60909097
0.63141276
0.65363596
0.67571111
0.69759011
0.71922676
0.74057738
0.76160158
0.78226311
0.80253090
0.82238029
0.84179467
0.86076735
0.87930398
0.89742535
0.91517005
0.93259562
0.94977325
0.96676332
0.98353616
0.99975034
1.01411086
1.02318158
1.02391584
1.01813049
1.01014790
1.00422085
1.00078528
0.99951202
1.00006696
1.00234582
1.00527144
1.00909965
1.01307953
1.01650549
1.01872196
1.01972045
1.02004822
1.02011097
1.01997502
1.01982131
1.01952936
1.01902839
1.01828893
1.01717109
1.01566995
1.01370995
1.01154893
1.00979207
1.00898932
1.00867451
1.00848989
1.00824876
1.00771275
1.00723311
1.00674414
1.00629686
1.00578228
1.00510061
1.00435324
1.00367108
1.00305452
1.00260168
1.00236675
1.00226101
1.00236128
1.00246600
1.00268311
1.00306725
1.00365580
1.00444772
1.00540172
1.00683430
1.00862523
1.00933558
1.00339439
0.97815684
0.91614648
0.79554693
0.62601358
0.45771948
0.32109107
0.22008192
0.14883012
0.09984739
0.06666694
0.04438641
0.02950435
0.01959626
0.01301261
0.00864274
0.00574366
0.00382038
0.00254404
0.00169648
0.00113314
0.00075829
0.00050851
0.00034181
0.00023035
0.00015568
0.00010554
0.00007178
0.00004899
0.00003356
0.00002308
0.00001594
0.00001105
0.00000769
0.00000538
0.00000378
0.00000266
0.00000188
0.00000134
0.00000095
0.00000068
0.00000049
0.00000035
0.00000025
0.00000018
0.00000013
0.00000010
0.00000007
0.00000005
0.00000004
0.00000003
0.00000002
0.00000001
0.00000001
0.00000001
0.00000001
0.00000000
0.00000000
0.00000000
0.00000000
0.00000000
0.00000000
0.00000000
0.00000000
0.00000000
0.00000000
0.00000000
0.00000000
0.00000000
0.00000000
0.00000000
0.00000000
0.00000000
0.00000000
0.00000000
0.00000000
0.00000000
0.00000000
0.00000000
0.00000000
0.00000000
0.00000000
0.00000000
0.00000000
0.00000000
0.00000000
0.00000000
0.00000000
0.00000000
0.00000000
0.00000000
0.00000000
0.00000000
0.00000000
0.00000000
0.00000000
0.00000000
0.00000000
0.00000000
0.00000000
0.00000000
0.00000000
0.00000000
0.00000000
0.00000000
0.00000000
0.00000000
0.00000000
0.00000000
0.00000000
0.00000000
0.00000000
0.00000000
0.00000000
0.00000000
0.00000000
0.00000000
0.00000000
0.00000000
0.00000000
0.00000000
0.00000000
0.00000000
0.00000000
0.00000000
0.00000000
0.00000000
0.00000000
0.00000000
0.00000000
0.00000000
0.00000000
0.00000000
0.00000000
0.00000000
0.00000000
0.00000000
0.00000000
0.00000000
0.00000000
0.00000000
0.00000000
0.00000000
0.00000000
0.00000000
0.00000000
0.00000000
0.00000000
0.00000000
0.00000000
0.00000000
0.00000000
0.00000000
0.00000000
0.00000000
0.00000000
0.00000000
0.00000000
0.00000000
0.00000000
0.00000000
0.00000000
0.00000000
0.00000000
0.00000000
0.00000000
0.00000000
0.00000000
0.00000000
0.00000000
0.00000000
0.00000000
0.00000000
0.00000000
0.00000000
0.00000000
0.00000000
0.00000000
0.00000000
0.00000000
0.00000000
0.00000000
0.00000000
0.00000000
0.00000000
0.00000000
0.00000000
0.00000000
0.00000000
0.00000000
0.00000000
0.00000000
0.00000000
0.00000000
0.00000000
0.00000000
0.00000000
0.00000000
0.00000000
0.00000000
0.00000000
0.00000000
0.00000000
0.00000000
0.00000000
0.00000000
0.00000000
0.00000000
0.00000000
0.00000000
0.00000000
0.00000000
0.00000000
0.00000000
0.00000000
0.00000000
0.00000000
0.00000000
0.00000000
0.00000000
0.00000000
0.00000000
0.00000198
0.00000209
0.00000230
0.00000264
0.00000311
0.00000375
0.00000456
0.00000559
0.00000689
0.00000850
0.00001049
0.00001294
0.00001594
0.00001961
0.00002409
0.00002953
0.00003613
0.00004411
0.00005374
0.00006535
0.00007930
0.00009601
0.00011601
0.00013988
0.00016831
0.00020209
0.00024213
0.00028950
0.00034540
0.00041124
0.00048860
0.00057929
0.00068537
0.00080919
0.00095337
0.00112090
0.00131512
0.00153977
0.00179905
0.00209761
0.00244064
0.00283387
0.00328365
0.00379694
0.00438140
0.00504541
0.00579808
0.00664934
0.00760994
0.00869148
0.00990644
0.01126820
0.01279105
0.01449022
0.01638182
0.01848291
0.02081138
0.02338603
0.02622644
0.02935292
0.03278651
0.03654880
0.04066192
0.04514835
0.05003087
0.05533234
0.06107562
0.06728334
0.07397777
0.08118059
0.08891270
0.09719403
0.10604330
0.11547782
0.12551326
0.13616341
0.14744002
0.15935254
0.17190794
0.18511053
0.19896181
0.21346029
0.22860135
0.24437721
0.26077679
0.27778567
0.29538612
0.31355706
0.33227413
0.35150979
0.37123337
0.39141125
0.41200702
0.43298164
0.45429367
0.47589951
0.49775360
0.51980877
0.54201644
0.56432699
0.58669003
0.60905479
0.63137045
0.65358655
0.67565341
0.69752261
0.71914748
0.74048366
0.76148972
0.78212784
0.80236454
0.82217144
0.84152611
0.86041272
0.87882246
0.89675308
0.91420640
0.93118144
0.94765804
0.96356107
0.97868779
0.99257567
1.00428848
1.01222304
1.01501974
1.01295871
1.00871924
1.00500394
1.00261110
1.00167133
1.00208075
1.00361997
1.00588425
1.00873892
1.01167440
1.01425210
1.01611203
1.01719642
1.01771042
1.01786940
1.01779682
1.01758767
1.01724442
1.01676630
1.01609685
1.01519962
1.01408157
1.01273776
1.01136525
1.01028353
1.00962466
1.00932138
1.00912863
1.00890776
1.00864405
1.00838217
1.00814088
1.00787465
1.00756361
1.00721273
1.00684977
1.00656311
1.00636153
1.00631208
1.00641314
1.00660774
1.00696780
1.00737716
1.00788296
1.00855130
1.00934718
1.01033473
1.01151605
1.01299046
1.01466479
1.01578453
1.01370991
1.00286094
0.97171480
0.89160432
0.72410763
0.52298872
0.35710556
0.23822851
0.15747418
0.10377707
0.06836042
0.04505960
0.02973247
0.01964292
0.01299404
0.00860738
0.00570972
0.00379328
0.00252417
0.00168260
0.00112375
0.00075206
0.00050444
0.00033918
0.00022867
0.00015461
0.00010485
0.00007135
0.00004872
0.00003339
0.00002297
0.00001587
0.00001101
0.00000767
0.00000536
0.00000377
0.00000266
0.00000188
0.00000134
0.00000095
0.00000068
0.00000049
0.00000035
0.00000025
0.00000018
0.00000013
0.00000010
0.00000007
0.00000005
0.00000004
0.00000003
0.00000002
0.00000001
0.00000001
0.00000001
0.00000001
0.00000000
0.00000000
0.00000000
0.00000000
0.00000000
0.00000000
0.00000000
0.00000000
0.00000000
0.00000000
0.00000000
0.00000000
0.00000000
0.00000000
0.00000000
0.00000000
0.00000000
0.00000000
0.00000000
0.00000000
0.00000000
0.00000000
0.00000000
0.00000000
0.00000000
0.00000000
0.00000000
0.00000000
0.00000000
0.00000000
0.00000000
0.00000000
0.00000000
0.00000000
0.00000000
0.00000000
0.00000000
0.00000000
0.00000000
0.00000000
0.00000000
0.00000000
0.00000000
0.00000000
0.00000000
0.00000000
0.00000000
0.00000000
0.00000000
0.00000000
0.00000000
0.00000000
0.00000000
0.00000000
0.00000000
0.00000000
0.00000000
0.00000000
0.00000000
0.00000000
0.00000000
0.00000000
0.00000000
0.00000000
0.00000000
0.00000000
0.00000000
0.00000000
0.00000000
0.00000000
0.00000000
0.00000000
0.00000000
0.00000000
0.00000000
0.00000000
0.00000000
0.00000000
0.00000000
0.00000000
0.00000000
0.00000000
0.00000000
0.00000000
0.00000000
0.00000000
0.00000000
0.00000000
0.00000000
0.00000000
0.00000000
0.00000000
0.00000000
0.00000000
0.00000000
0.00000000
0.00000000
0.00000000
0.00000000
0.00000000
0.00000000
0.00000000
0.00000000
0.00000000
0.00000000
0.00000000
0.00000000
0.00000000
0.00000000
0.00000000
0.00000000
0.00000000
0.00000000
0.00000000
0.00000000
0.00000000
0.00000000
0.00000000
0.00000000
0.00000000
0.00000000
0.00000000
0.00000000
0.00000000
0.00000000
0.00000000
0.00000000
0.00000000
0.00000000
0.00000000
0.00000000
0.00000000
0.00000000
0.00000000
0.00000000
0.00000000
0.00000000
0.00000000
0.00000000
0.00000000
0.00000000
0.00000000
0.00000000
0.00000000
0.00000000
0.00000000
0.00000000
0.00000000
0.00000000
0.00000000
0.00000000
0.00000000
0.00000000
0.00000000
0.00000000
0.00000000
0.00000000
0.00000000
0.00000000
0.00000000
0.00000000
0.00000000
0.00000000
0.00000000
0.00000000
0.00000000
0.00000198
0.00000209
0.00000230
0.00000264
0.00000311
0.00000375
0.00000456
0.00000559
0.00000689
0.00000850
0.00001049
0.00001294
0.00001594
0.00001961
0.00002409
0.00002953
0.00003613
0.00004411
0.00005374
0.00006535
0.00007930
0.00009601
0.00011601
0.00013988
0.00016831
0.00020209
0.00024213
0.00028950
0.00034540
0.00041124
0.00048860
0.00057929
0.00068537
0.00080919
0.00095337
0.00112090
0.00131512
0.00153977
0.00179905
0.00209761
0.00244064
0.00283387
0.00328365
0.00379694
0.00438141
0.00504541
0.00579808
0.00664935
0.00760995
0.00869149
0.00990645
0.01126821
0.01279107
0.01449023
0.01638184
0.01848293
0.02081141
0.02338606
0.02622647
0.02935297
0.03278656
0.03654886
0.04066199
0.04514844
0.05003097
0.05533246
0.06107575
0.06728349
0.07397794
0.08118077
0.08891290
0.09719425
0.10604355
0.11547808
0.12551353
0.13616368
0.14744028
0.15935278
0.17190814
0.18511067
0.19896185
0.21346018
0.22860106
0.24437666
0.26077590
0.27778434
0.29538424
0.31355448
0.33227070
0.35150530
0.37122761
0.39140396
0.41199790
0.43297036
0.45427985
0.47588273
0.49773339
0.51978460
0.54198774
0.56429309
0.58665020
0.60900820
0.63131612
0.65352334
0.67557993
0.69743713
0.71904776
0.74036674
0.76135156
0.78196276
0.80216442
0.82192446
0.84121478
0.86001092
0.87829095
0.89603275
0.91320870
0.92977539
0.94565536
0.96070609
0.97467226
0.98712456
0.99741389
1.00472585
1.00846833
1.00885470
1.00729516
1.00537005
1.00387306
1.00319599
1.00343505
1.00448449
1.00619032
1.00831644
1.01055251
1.01258025
1.01414740
1.01515331
1.01565803
1.01579153
1.01567698
1.01541086
1.01503926
1.01458286
1.01402777
1.01336266
1.01259153
1.01175630
1.01094769
1.01030267
1.00989638
1.00969310
1.00958955
1.00950821
1.00942576
1.00935250
1.00928944
1.00921997
1.00915413
1.00909851
1.00907724
1.00913310
1.00928770
1.00956776
1.00997517
1.01050369
1.01113066
1.01185342
1.01264816
1.01351050
1.01441227
1.01534565
1.01625656
1.01705607
1.01751334
1.01699705
1.01419996
1.00672419
0.98878414
0.94121634
0.81245931
0.59000210
0.39375942
0.25583708
0.16534672
0.10708284
0.06962942
0.04546334
0.02979438
0.01958797
0.01291342
0.00853401
0.00565245
0.00375181
0.00249543
0.00166324
0.00111096
0.00074373
0.00049907
0.00033575
0.00022648
0.00015322
0.00010398
0.00007080
0.00004837
0.00003317
0.00002284
0.00001578
0.00001095
0.00000763
0.00000534
0.00000375
0.00000265
0.00000187
0.00000133
0.00000095
0.00000068
0.00000049
0.00000035
0.00000025
0.00000018
0.00000013
0.00000010
0.00000007
0.00000005
0.00000004
0.00000003
0.00000002
0.00000001
0.00000001
0.00000001
0.00000001
0.00000000
0.00000000
0.00000000
0.00000000
0.00000000
0.00000000
0.00000000
0.00000000
0.00000000
0.00000000
0.00000000
0.00000000
0.00000000
0.00000000
0.00000000
0.00000000
0.00000000
0.00000000
0.00000000
0.00000000
0.00000000
0.00000000
0.00000000
0.00000000
0.00000000
0.00000000
0.00000000
0.00000000
0.00000000
0.00000000
0.00000000
0.00000000
0.00000000
0.00000000
0.00000000
0.00000000
0.00000000
0.00000000
0.00000000
0.00000000
0.00000000
0.00000000
0.00000000
0.00000000
0.00000000
0.00000000
0.00000000
0.00000000
0.00000000
0.00000000
0.00000000
0.00000000
0.00000000
0.00000000
0.00000000
0.00000000
0.00000000
0.00000000
0.00000000
0.00000000
0.00000000
0.00000000
0.00000000
0.00000000
0.00000000
0.00000000
0.00000000
0.00000000
0.00000000
0.00000000
0.00000000
0.00000000
0.00000000
0.00000000
0.00000000
0.00000000
0.00000000
0.00000000
0.00000000
0.00000000
0.00000000
0.00000000
0.00000000
0.00000000
0.00000000
0.00000000
0.00000000
0.00000000
0.00000000
0.00000000
0.00000000
0.00000000
0.00000000
0.00000000
0.00000000
0.00000000
0.00000000
0.00000000
0.00000000
0.00000000
0.00000000
0.00000000
0.00000000
0.00000000
0.00000000
0.00000000
0.00000000
0.00000000
0.00000000
0.00000000
0.00000000
0.00000000
0.00000000
0.00000000
0.00000000
0.00000000
0.00000000
0.00000000
0.00000000
0.00000000
0.00000000
0.00000000
0.00000000
0.00000000
0.00000000
0.00000000
0.00000000
0.00000000
0.00000000
0.00000000
0.00000000
0.00000000
0.00000000
0.00000000
0.00000000
0.00000000
0.00000000
0.00000000
0.00000000
0.00000000
0.00000000
0.00000000
0.00000000
0.00000000
0.00000000
0.00000000
0.00000000
0.00000000
0.00000000
0.00000000
0.00000000
0.00000000
0.00000000
0.00000000
0.00000000
0.00000000
0.00000000
0.00000000
0.00000000
0.00000000
0.00000000
0.00000000
0.00000000
0.00000000
0.00000000
0.00000000
0.00000198
0.00000209
0.00000230
0.00000264
0.00000311
0.00000375
0.00000456
0.00000559
0.00000689
0.00000850
0.00001049
0.00001294
0.00001594
0.00001961
0.00002409
0.00002953
0.00003613
0.00004411
0.00005374
0.00006535
0.00007930
0.00009601
0.00011601
0.00013988
0.00016831
0.00020209
0.00024213
0.00028950
0.00034540
0.00041124
0.00048860
0.00057929
0.00068537
0.00080919
0.00095337
0.00112090
0.00131512
0.00153977
0.00179905
0.00209761
0.00244064
0.00283387
0.00328365
0.00379694
0.00438141
0.00504541
0.00579809
0.00664935
0.00760996
0.00869150
0.00990646
0.01126822
0.01279108
0.01449025
0.01638186
0.01848295
0.02081144
0.02338610
0.02622652
0.02935302
0.03278662
0.03654894
0.04066208
0.04514854
0.05003108
0.05533259
0.06107591
0.06728367
0.07397814
0.08118100
0.08891315
0.09719453
0.10604384
0.11547840
0.12551385
0.13616401
0.14744060
0.15935307
0.17190838
0.18511083
0.19896189
0.21346005
0.22860068
0.24437597
0.26077479
0.27778271
0.29538193
0.31355133
0.33226650
0.35149983
0.37122058
0.39139507
0.41198680
0.43295664
0.45426307
0.47586238
0.49770892
0.51975540
0.54195311
0.56425230
0.58660242
0.60895248
0.63125140
0.65344840
0.67549330
0.69733703
0.71893196
0.74023233
0.76119467
0.78177811
0.80194461
0.82165900
0.84088856
0.85960211
0.87776792
0.89535004
0.91230187
0.92855582
0.94400733
0.95849248
0.97176093
0.98345423
0.99311465
1.00026895
1.00464144
1.00641576
1.00637729
1.00551480
1.00457441
1.00403028
1.00410221
1.00482203
1.00610565
1.00777892
1.00960599
1.01132108
1.01268904
1.01356513
1.01394050
1.01392904
1.01368183
1.01331551
1.01290048
1.01247176
1.01203252
1.01157871
1.01111498
1.01066526
1.01027406
1.00999227
1.00984769
1.00981738
1.00985432
1.00991712
1.00998744
1.01006894
1.01016312
1.01027525
1.01041509
1.01059742
1.01084620
1.01118618
1.01163721
1.01221737
1.01292996
1.01376694
1.01470993
1.01573698
1.01681596
1.01790371
1.01894619
1.01987127
1.02056506
1.02085022
1.02041528
1.01871159
1.01483584
1.00713363
0.99144226
0.95484077
0.85867200
0.63346820
0.41717736
0.26606877
0.16926763
0.10831291
0.06981183
0.04529448
0.02955057
0.01936724
0.01274142
0.00840952
0.00556615
0.00369365
0.00245699
0.00163820
0.00109481
0.00073340
0.00049250
0.00033159
0.00022386
0.00015157
0.00010294
0.00007015
0.00004796
0.00003292
0.00002268
0.00001568
0.00001089
0.00000759
0.00000532
0.00000374
0.00000264
0.00000187
0.00000133
0.00000095
0.00000068
0.00000049
0.00000035
0.00000025
0.00000018
0.00000013
0.00000010
0.00000007
0.00000005
0.00000004
0.00000003
0.00000002
0.00000001
0.00000001
0.00000001
0.00000001
0.00000000
0.00000000
0.00000000
0.00000000
0.00000000
0.00000000
0.00000000
0.00000000
0.00000000
0.00000000
0.00000000
0.00000000
0.00000000
0.00000000
0.00000000
0.00000000
0.00000000
0.00000000
0.00000000
0.00000000
0.00000000
0.00000000
0.00000000
0.00000000
0.00000000
0.00000000
0.00000000
0.00000000
0.00000000
0.00000000
0.00000000
0.00000000
0.00000000
0.00000000
0.00000000
0.00000000
0.00000000
0.00000000
0.00000000
0.00000000
0.00000000
0.00000000
0.00000000
0.00000000
0.00000000
0.00000000
0.00000000
0.00000000
0.00000000
0.00000000
0.00000000
0.00000000
0.00000000
0.00000000
0.00000000
0.00000000
0.00000000
0.00000000
0.00000000
0.00000000
0.00000000
0.00000000
0.00000000
0.00000000
0.00000000
0.00000000
0.00000000
0.00000000
0.00000000
0.00000000
0.00000000
0.00000000
0.00000000
0.00000000
0.00000000
0.00000000
0.00000000
0.00000000
0.00000000
0.00000000
0.00000000
0.00000000
0.00000000
0.00000000
0.00000000
0.00000000
0.00000000
0.00000000
0.00000000
0.00000000
0.00000000
0.00000000
0.00000000
0.00000000
0.00000000
0.00000000
0.00000000
0.00000000
0.00000000
0.00000000
0.00000000
0.00000000
0.00000000
0.00000000
0.00000000
0.00000000
0.00000000
0.00000000
0.00000000
0.00000000
0.00000000
0.00000000
0.00000000
0.00000000
0.00000000
0.00000000
0.00000000
0.00000000
0.00000000
0.00000000
0.00000000
0.00000000
0.00000000
0.00000000
0.00000000
0.00000000
0.00000000
0.00000000
0.00000000
0.00000000
0.00000000
0.00000000
0.00000000
0.00000000
0.00000000
0.00000000
0.00000000
0.00000000
0.00000000
0.00000000
0.00000000
0.00000000
0.00000000
0.00000000
0.00000000
0.00000000
0.00000000
0.00000000
0.00000000
0.00000000
0.00000000
0.00000000
0.00000000
0.00000000
0.00000000
0.00000000
0.00000000
0.00000000
0.00000000
0.00000000
0.00000000
0.00000000
0.00000000
0.00000000
0.00000000
0.00000000
0.00000198
0.00000209
0.00000230
0.00000264
0.00000311
0.00000375
0.00000456
0.00000559
0.00000689
0.00000850
0.00001049
0.00001294
0.00001594
0.00001961
0.00002409
0.00002953
0.00003613
0.00004411
0.00005374
0.00006535
0.00007930
0.00009601
0.00011601
0.00013988
0.00016831
0.00020209
0.00024213
0.00028950
0.00034540
0.00041124
0.00048860
0.00057929
0.00068537
0.00080919
0.00095338
0.00112090
0.00131512
0.00153978
0.00179905
0.00209761
0.00244064
0.00283388
0.00328365
0.00379695
0.00438141
0.00504542
0.00579809
0.00664936
0.00760996
0.00869151
0.00990647
0.01126824
0.01279110
0.01449027
0.01638189
0.01848298
0.02081148
0.02338615
0.02622657
0.02935308
0.03278670
0.03654902
0.04066218
0.04514866
0.05003122
0.05533275
0.06107609
0.06728388
0.07397837
0.08118126
0.08891344
0.09719484
0.10604418
0.11547876
0.12551423
0.13616439
0.14744097
0.15935340
0.17190865
0.18511100
0.19896192
0.21345988
0.22860023
0.24437515
0.26077349
0.27778079
0.29537922
0.31354764
0.33226160
0.35149344
0.37121240
0.39138473
0.41197390
0.43294073
0.45424363
0.47583885
0.49768068
0.51972176
0.54191334
0.56420557
0.58654785
0.60888910
0.63117813
0.65336400
0.67539639
0.69722594
0.71880467
0.74008633
0.76102671
0.78158391
0.80171839
0.82139285
0.84057158
0.85921926
0.87729861
0.89476656
0.91156818
0.92762757
0.94283519
0.95703208
0.96999387
0.98142298
0.99096519
0.99827318
1.00313374
1.00563156
1.00625506
1.00577884
1.00495508
1.00432622
1.00418573
1.00463153
1.00563439
1.00706923
1.00872907
1.01034623
1.01164476
1.01239816
1.01253997
1.01225270
1.01176663
1.01123652
1.01075091
1.01034464
1.01001811
1.00976041
1.00956537
1.00943773
1.00938841
1.00942425
1.00953901
1.00970902
1.00990550
1.01010663
1.01030586
1.01050904
1.01072712
1.01097401
1.01126665
1.01162526
1.01207316
1.01263355
1.01332684
1.01416828
1.01516288
1.01630436
1.01757374
1.01893966
1.02035563
1.02175954
1.02307195
1.02419128
1.02497434
1.02521530
1.02462851
1.02278562
1.01897837
1.01171299
0.99661873
0.95922790
0.85528941
0.62565062
0.41113537
0.26196779
0.16642492
0.10632431
0.06843046
0.04434760
0.02891104
0.01894124
0.01246111
0.00822699
0.00544834
0.00361817
0.00240894
0.00160776
0.00107561
0.00072133
0.00048493
0.00032685
0.00022090
0.00014972
0.00010179
0.00006943
0.00004751
0.00003264
0.00002250
0.00001557
0.00001082
0.00000755
0.00000529
0.00000372
0.00000263
0.00000186
0.00000132
0.00000094
0.00000068
0.00000049
0.00000035
0.00000025
0.00000018
0.00000013
0.00000010
0.00000007
0.00000005
0.00000004
0.00000003
0.00000002
0.00000001
0.00000001
0.00000001
0.00000001
0.00000000
0.00000000
0.00000000
0.00000000
0.00000000
0.00000000
0.00000000
0.00000000
0.00000000
0.00000000
0.00000000
0.00000000
0.00000000
0.00000000
0.00000000
0.00000000
0.00000000
0.00000000
0.00000000
0.00000000
0.00000000
0.00000000
0.00000000
0.00000000
0.00000000
0.00000000
0.00000000
0.00000000
0.00000000
0.00000000
0.00000000
0.00000000
0.00000000
0.00000000
0.00000000
0.00000000
0.00000000
0.00000000
0.00000000
0.00000000
0.00000000
0.00000000
0.00000000
0.00000000
0.00000000
0.00000000
0.00000000
0.00000000
0.00000000
0.00000000
0.00000000
0.00000000
0.00000000
0.00000000
0.00000000
0.00000000
0.00000000
0.00000000
0.00000000
0.00000000
0.00000000
0.00000000
0.00000000
0.00000000
0.00000000
0.00000000
0.00000000
0.00000000
0.00000000
0.00000000
0.00000000
0.00000000
0.00000000
0.00000000
0.00000000
0.00000000
0.00000000
0.00000000
0.00000000
0.00000000
0.00000000
0.00000000
0.00000000
0.00000000
0.00000000
0.00000000
0.00000000
0.00000000
0.00000000