# vtk DataFile Version 3.0
Concentration output
ASCII
DATASET STRUCTURED_POINTS
DIMENSIONS 398 98 1
ORIGIN 0 0 0
SPACING 0.03 0.03 1.0
POINT_DATA 39004
SCALARS Variable float 1
LOOKUP_TABLE default
0.00084552
0.00085729
0.00088093
0.00091667
0.00096486
0.00102594
0.00110048
0.00118918
0.00129285
0.00141243
0.00154897
0.00170369
0.00187792
0.00207313
0.00229095
0.00253316
0.00280169
0.00309864
0.00342626
0.00378701
0.00418349
0.00461852
0.00509509
0.00561639
0.00618581
0.00680697
0.00748366
0.00821994
0.00902003
0.00988843
0.01082982
0.01184913
0.01295152
0.01414236
0.01542727
0.01681207
0.01830282
0.01990579
0.02162746
0.02347451
0.02545382
0.02757245
0.02983764
0.03225677
0.03483739
0.03758715
0.04051382
0.04362528
0.04692943
0.05043426
0.05414774
0.05807786
0.06223255
0.06661969
0.07124705
0.07612229
0.08125288
0.08664611
0.09230904
0.09824844
0.10447080
0.11098226
0.11778857
0.12489509
0.13230669
0.14002779
0.14806227
0.15641346
0.16508409
0.17407626
0.18339145
0.19303044
0.20299330
0.21327937
0.22388727
0.23481481
0.24605904
0.25761622
0.26948180
0.28165042
0.29411592
0.30687133
0.31990888
0.33322002
0.34679541
0.36062499
0.37469794
0.38900275
0.40352724
0.41825859
0.43318341
0.44828773
0.46355709
0.47897660
0.49453095
0.51020452
0.52598141
0.54184553
0.55778066
0.57377052
0.58979886
0.60584955
0.62190665
0.63795451
0.65397787
0.66996195
0.68589256
0.70175617
0.71754010
0.73323253
0.74882271
0.76430102
0.77965915
0.79489028
0.80998927
0.82495301
0.83978084
0.85447521
0.86904269
0.88349549
0.89785388
0.91214992
0.92643354
0.94078245
0.95531906
0.97023934
0.98585578
1.00262406
1.02067039
1.03659147
1.04100248
1.04146581
1.04102390
1.03888022
1.03379447
1.02934068
1.02607186
1.02377644
1.02225732
1.02137986
1.02106477
1.02127585
1.02201308
1.02331409
1.02526583
1.02801370
1.03170518
1.03567334
1.03573539
1.03139983
1.02731711
1.02552932
1.02727540
1.03216255
1.03803436
1.03924959
1.04001066
1.04153241
1.04045030
1.03187393
1.02249145
1.01426743
1.00808348
1.00366772
1.00053374
0.99825906
0.99669871
0.99555902
0.99478461
0.99418691
0.99382335
0.99356274
0.99346689
0.99339131
0.99327016
0.99338046
0.99329075
0.99334938
0.99341146
0.99330744
0.99335042
0.99330902
0.99337066
0.99342398
0.99347321
0.99352414
0.99363281
0.99373179
0.99378721
0.99394587
0.99406199
0.99418765
0.99437457
0.99455608
0.99475192
0.99493858
0.99516660
0.99550504
0.99575188
0.99606148
0.99635457
0.99670764
0.99698693
0.99737913
0.99772059
0.99809294
0.99835949
0.99869612
0.99900814
0.99934082
0.99964189
0.99993085
1.00016845
1.00037572
1.00055999
1.00070451
1.00082474
1.00096646
1.00106346
1.00116399
1.00120092
1.00123355
1.00130349
1.00139929
1.00147698
1.00149205
1.00146741
1.00151179
1.00151062
1.00153259
1.00152183
1.00152764
1.00152023
1.00148958
1.00146685
1.00143987
1.00146391
1.00143241
1.00141129
1.00135564
1.00125036
1.00120785
1.00116626
1.00107029
1.00099444
1.00093437
1.00081010
1.00075560
1.00063996
1.00052897
1.00037548
1.00018608
0.99995116
0.99969411
0.99935936
0.99905128
0.99852845
0.99794518
0.99718911
0.99627620
0.99490761
0.99291534
0.99000732
0.98552122
0.97831735
0.96696416
0.94882170
0.91939626
0.86950474
0.79073433
0.68412352
0.56200479
0.44098310
0.33332185
0.24458029
0.17533729
0.12344070
0.08569529
0.05885410
0.04008829
0.02713523
0.01828037
0.01227102
0.00821507
0.00548881
0.00366193
0.00244053
0.00162530
0.00108182
0.00071984
0.00047887
0.00031853
0.00021187
0.00014093
0.00009374
0.00006236
0.00004148
0.00002760
0.00001836
0.00001222
0.00000813
0.00000541
0.00000360
0.00000239
0.00000159
0.00000106
0.00000071
0.00000047
0.00000031
0.00000021
0.00000014
0.00000009
0.00000006
0.00000004
0.00000003
0.00000002
0.00000001
0.00000001
0.00000001
0.00000000
0.00000000
0.00000000
0.00000000
0.00000000
0.00000000
0.00000000
0.00000000
0.00000000
0.00000000
0.00000000
0.00000000
0.00000000
0.00000000
0.00000000
0.00000000
0.00000000
0.00000000
0.00000000
0.00000000
0.00000000
0.00000000
0.00000000
0.00000000
0.00000000
0.00000000
0.00000000
0.00000000
0.00000000
0.00000000
0.00000000
0.00000000
0.00000000
0.00000000
0.00000000
0.00000000
0.00000000
0.00000000
0.00000000
0.00000000
0.00000000
0.00000000
0.00000000
0.00000000
0.00000000
0.00000000
0.00000000
0.00000000
0.00000000
0.00000000
0.00000000
0.00000000
0.00000000
0.00000000
0.00000000
0.00000000
0.00000000
0.00000000
0.00000000
0.00000000
0.00000000
0.00000000
0.00000000
0.00000000
0.00000000
0.00000000
0.00000000
0.00000000
0.00000000
0.00000000
0.00000000
0.00000000
0.00000000
0.00000000
0.00000000
0.00000000
0.00000000
0.00000000
0.00000000
0.00084552
0.00085729
0.00088093
0.00091667
0.00096486
0.00102594
0.00110048
0.00118918
0.00129285
0.00141243
0.00154897
0.00170369
0.00187792
0.00207313
0.00229095
0.00253316
0.00280169
0.00309864
0.00342626
0.00378701
0.00418349
0.00461852
0.00509509
0.00561639
0.00618581
0.00680697
0.00748366
0.00821994
0.00902003
0.00988843
0.01082982
0.01184913
0.01295152
0.01414236
0.01542727
0.01681207
0.01830282
0.01990579
0.02162746
0.02347451
0.02545382
0.02757245
0.02983764
0.03225677
0.03483738
0.03758714
0.04051382
0.04362527
0.04692943
0.05043425
0.05414774
0.05807785
0.06223254
0.06661968
0.07124705
0.07612228
0.08125287
0.08664610
0.09230902
0.09824843
0.10447079
0.11098224
0.11778855
0.12489506
0.13230666
0.14002776
0.14806224
0.15641342
0.16508404
0.17407621
0.18339140
0.19303038
0.20299323
0.21327929
0.22388717
0.23481470
0.24605892
0.25761608
0.26948164
0.28165024
0.29411572
0.30687109
0.31990861
0.33321971
0.34679506
0.36062458
0.37469747
0.38900220
0.40352661
0.41825787
0.43318258
0.44828677
0.46355599
0.47897533
0.49452949
0.51020284
0.52597948
0.54184331
0.55777811
0.57376760
0.58979551
0.60584571
0.62190224
0.63794945
0.65397206
0.66995526
0.68588484
0.70174725
0.71752974
0.73322044
0.74880850
0.76428420
0.77963904
0.79486596
0.80995949
0.82491600
0.83973411
0.85441519
0.86896417
0.88339080
0.89771153
0.91195233
0.92615321
0.94037497
0.95470979
0.96929711
0.98434192
1.00009791
1.01661280
1.03222721
1.03961732
1.04088511
1.03996122
1.03673709
1.03207237
1.02811927
1.02518696
1.02309292
1.02168541
1.02085880
1.02055057
1.02072968
1.02139030
1.02254912
1.02424380
1.02652227
1.02937179
1.03235672
1.03324776
1.02938531
1.02490115
1.02230916
1.02426016
1.02902123
1.03343611
1.03498511
1.03581909
1.03673164
1.03592186
1.02979664
1.02093105
1.01287559
1.00696405
1.00295691
1.00017302
0.99811646
0.99664376
0.99552485
0.99471536
0.99418130
0.99382569
0.99378682
0.99356285
0.99353344
0.99336698
0.99343747
0.99328927
0.99341948
0.99346172
0.99325673
0.99343086
0.99345934
0.99350630
0.99357761
0.99356238
0.99358431
0.99373003
0.99377134
0.99375872
0.99398385
0.99417365
0.99434692
0.99433992
0.99455204
0.99471649
0.99487242
0.99524284
0.99547630
0.99575768
0.99605642
0.99638053
0.99666435
0.99701946
0.99739810
0.99777798
0.99806239
0.99841502
0.99879943
0.99902520
0.99940724
0.99976100
1.00001306
1.00024304
1.00044553
1.00076159
1.00075225
1.00078720
1.00112460
1.00118502
1.00129418
1.00127783
1.00132998
1.00130005
1.00139510
1.00153230
1.00150322
1.00150234
1.00154829
1.00167152
1.00170684
1.00171336
1.00174879
1.00163589
1.00145067
1.00149605
1.00158000
1.00156295
1.00154534
1.00149545
1.00143607
1.00131819
1.00128907
1.00134455
1.00128016
1.00114914
1.00099310
1.00088630
1.00104081
1.00084299
1.00070182
1.00064564
1.00043189
1.00045601
1.00009422
0.99995031
0.99960320
0.99933327
0.99888371
0.99851108
0.99797323
0.99729287
0.99637010
0.99504074
0.99321764
0.98989877
0.98419340
0.97342401
0.95248562
0.91239058
0.84204372
0.73658869
0.60654575
0.47331965
0.35443125
0.25741425
0.18275574
0.12757093
0.08793018
0.06003701
0.04070358
0.02745082
0.01844038
0.01235139
0.00825515
0.00550869
0.00367179
0.00244543
0.00162777
0.00108310
0.00072053
0.00047926
0.00031877
0.00021202
0.00014103
0.00009381
0.00006240
0.00004152
0.00002762
0.00001838
0.00001223
0.00000814
0.00000541
0.00000360
0.00000240
0.00000160
0.00000106
0.00000071
0.00000047
0.00000031
0.00000021
0.00000014
0.00000009
0.00000006
0.00000004
0.00000003
0.00000002
0.00000001
0.00000001
0.00000001
0.00000000
0.00000000
0.00000000
0.00000000
0.00000000
0.00000000
0.00000000
0.00000000
0.00000000
0.00000000
0.00000000
0.00000000
0.00000000
0.00000000
0.00000000
0.00000000
0.00000000
0.00000000
0.00000000
0.00000000
0.00000000
0.00000000
0.00000000
0.00000000
0.00000000
0.00000000
0.00000000
0.00000000
0.00000000
0.00000000
0.00000000
0.00000000
0.00000000
0.00000000
0.00000000
0.00000000
0.00000000
0.00000000
0.00000000
0.00000000
0.00000000
0.00000000
0.00000000
0.00000000
0.00000000
0.00000000
0.00000000
0.00000000
0.00000000
0.00000000
0.00000000
0.00000000
0.00000000
0.00000000
0.00000000
0.00000000
0.00000000
0.00000000
0.00000000
0.00000000
0.00000000
0.00000000
0.00000000
0.00000000
0.00000000
0.00000000
0.00000000
0.00000000
0.00000000
0.00000000
0.00000000
0.00000000
0.00000000
0.00000000
0.00000000
0.00000000
0.00000000
0.00000000
0.00000000
0.00084552
0.00085729
0.00088093
0.00091667
0.00096486
0.00102594
0.00110048
0.00118918
0.00129285
0.00141243
0.00154897
0.00170369
0.00187792
0.00207313
0.00229095
0.00253316
0.00280169
0.00309864
0.00342626
0.00378701
0.00418349
0.00461852
0.00509509
0.00561639
0.00618581
0.00680697
0.00748367
0.00821994
0.00902003
0.00988843
0.01082982
0.01184913
0.01295152
0.01414236
0.01542727
0.01681207
0.01830282
0.01990579
0.02162746
0.02347451
0.02545382
0.02757245
0.02983763
0.03225677
0.03483738
0.03758714
0.04051381
0.04362527
0.04692942
0.05043424
0.05414772
0.05807784
0.06223253
0.06661966
0.07124703
0.07612226
0.08125285
0.08664607
0.09230899
0.09824839
0.10447075
0.11098220
0.11778850
0.12489501
0.13230660
0.14002769
0.14806216
0.15641334
0.16508395
0.17407611
0.18339128
0.19303025
0.20299308
0.21327913
0.22388699
0.23481449
0.24605868
0.25761581
0.26948133
0.28164989
0.29411531
0.30687063
0.31990808
0.33321909
0.34679435
0.36062377
0.37469653
0.38900113
0.40352537
0.41825644
0.43318093
0.44828487
0.46355380
0.47897281
0.49452659
0.51019951
0.52597565
0.54183892
0.55777307
0.57376180
0.58978886
0.60583809
0.62189350
0.63793942
0.65396054
0.66994202
0.68586957
0.70172960
0.71750927
0.73319658
0.74878052
0.76425113
0.77959961
0.79481845
0.80990153
0.82484431
0.83964407
0.85430020
0.86881472
0.88319296
0.89744460
0.91158510
0.92563772
0.93963587
0.95362547
0.96766501
0.98181628
0.99609891
1.01032103
1.02353994
1.03275382
1.03659714
1.03539888
1.03230649
1.02884988
1.02589202
1.02356022
1.02181606
1.02059929
1.01985948
1.01956183
1.01968532
1.02021840
1.02115289
1.02247297
1.02412927
1.02597148
1.02755574
1.02778864
1.02516605
1.02077210
1.01693058
1.01935549
1.02412943
1.02783179
1.02955769
1.03029901
1.03036344
1.02898706
1.02450958
1.01766495
1.01089606
1.00611177
1.00271655
1.00038598
0.99841488
0.99715610
0.99616262
0.99544738
0.99485902
0.99451642
0.99427483
0.99415401
0.99410498
0.99392282
0.99381837
0.99388195
0.99382259
0.99382936
0.99370309
0.99379869
0.99383559
0.99385124
0.99383413
0.99386102
0.99383554
0.99406342
0.99410438
0.99402491
0.99408504
0.99419879
0.99450912
0.99463493
0.99485931
0.99489787
0.99521163
0.99539820
0.99566035
0.99592398
0.99615056
0.99650996
0.99676501
0.99716630
0.99741529
0.99789315
0.99825251
0.99866333
0.99898598
0.99932753
0.99978759
1.00007893
1.00012231
1.00056067
1.00075926
1.00096338
1.00104151
1.00121019
1.00136082
1.00152612
1.00163581
1.00158111
1.00176838
1.00168371
1.00163785
1.00187551
1.00192965
1.00176649
1.00187240
1.00187842
1.00186204
1.00187905
1.00181087
1.00196298
1.00179564
1.00179264
1.00193232
1.00188844
1.00190502
1.00187054
1.00181982
1.00175692
1.00176431
1.00176810
1.00174055
1.00168298
1.00161578
1.00166558
1.00167978
1.00175112
1.00164212
1.00156164
1.00164371
1.00155500
1.00165404
1.00152466
1.00151391
1.00146259
1.00173535
1.00188451
1.00207342
1.00254411
1.00319905
1.00425852
1.00596123
1.00811580
1.01009626
1.00956361
1.00072850
0.97642234
0.92530338
0.83175045
0.69390902
0.53836142
0.39669175
0.28271956
0.19713159
0.13544542
0.09213082
0.06223374
0.04183476
0.02802613
0.01873002
0.01249599
0.00832688
0.00554414
0.00368931
0.00245416
0.00163219
0.00108541
0.00072179
0.00047999
0.00031922
0.00021232
0.00014123
0.00009395
0.00006250
0.00004159
0.00002767
0.00001841
0.00001225
0.00000815
0.00000543
0.00000361
0.00000240
0.00000160
0.00000106
0.00000071
0.00000047
0.00000031
0.00000021
0.00000014
0.00000009
0.00000006
0.00000004
0.00000003
0.00000002
0.00000001
0.00000001
0.00000001
0.00000000
0.00000000
0.00000000
0.00000000
0.00000000
0.00000000
0.00000000
0.00000000
0.00000000
0.00000000
0.00000000
0.00000000
0.00000000
0.00000000
0.00000000
0.00000000
0.00000000
0.00000000
0.00000000
0.00000000
0.00000000
0.00000000
0.00000000
0.00000000
0.00000000
0.00000000
0.00000000
0.00000000
0.00000000
0.00000000
0.00000000
0.00000000
0.00000000
0.00000000
0.00000000
0.00000000
0.00000000
0.00000000
0.00000000
0.00000000
0.00000000
0.00000000
0.00000000
0.00000000
0.00000000
0.00000000
0.00000000
0.00000000
0.00000000
0.00000000
0.00000000
0.00000000
0.00000000
0.00000000
0.00000000
0.00000000
0.00000000
0.00000000
0.00000000
0.00000000
0.00000000
0.00000000
0.00000000
0.00000000
0.00000000
0.00000000
0.00000000
0.00000000
0.00000000
0.00000000
0.00000000
0.00000000
0.00000000
0.00000000
0.00000000
0.00000000
0.00000000
0.00000000
0.00000000
0.00084552
0.00085729
0.00088093
0.00091667
0.00096486
0.00102594
0.00110048
0.00118918
0.00129285
0.00141243
0.00154897
0.00170369
0.00187792
0.00207313
0.00229095
0.00253316
0.00280169
0.00309864
0.00342626
0.00378701
0.00418349
0.00461852
0.00509509
0.00561639
0.00618581
0.00680697
0.00748367
0.00821994
0.00902004
0.00988843
0.01082982
0.01184913
0.01295152
0.01414236
0.01542727
0.01681207
0.01830282
0.01990579
0.02162746
0.02347451
0.02545382
0.02757245
0.02983763
0.03225676
0.03483737
0.03758713
0.04051381
0.04362526
0.04692941
0.05043423
0.05414771
0.05807782
0.06223251
0.06661964
0.07124700
0.07612223
0.08125281
0.08664603
0.09230895
0.09824834
0.10447069
0.11098213
0.11778843
0.12489493
0.13230652
0.14002760
0.14806206
0.15641322
0.16508381
0.17407596
0.18339111
0.19303006
0.20299287
0.21327889
0.22388671
0.23481418
0.24605833
0.25761541
0.26948087
0.28164936
0.29411471
0.30686994
0.31990728
0.33321818
0.34679330
0.36062256
0.37469514
0.38899953
0.40352353
0.41825432
0.43317848
0.44828205
0.46355056
0.47896908
0.49452230
0.51019458
0.52596999
0.54183242
0.55776560
0.57375324
0.58977905
0.60582683
0.62188059
0.63792461
0.65394353
0.66992246
0.68584706
0.70170361
0.71747916
0.73316155
0.74873956
0.76420290
0.77954236
0.79474983
0.80981836
0.82474223
0.83951697
0.85413949
0.86860810
0.88292266
0.89708461
0.91109694
0.92496377
0.93868890
0.95227207
0.96569981
0.97892424
0.99181594
1.00406035
1.01496199
1.02318336
1.02764120
1.02820176
1.02693215
1.02503529
1.02312296
1.02144546
1.02009459
1.01909715
1.01845590
1.01816600
1.01821997
1.01860552
1.01929873
1.02025178
1.02137088
1.02247510
1.02322291
1.02305513
1.02139969
1.01867171
1.01659037
1.01810123
1.02096302
1.02337779
1.02470888
1.02515213
1.02471935
1.02308681
1.01974060
1.01500367
1.01014527
1.00630625
1.00339888
1.00117134
0.99940673
0.99810941
0.99712932
0.99635976
0.99579046
0.99535129
0.99504912
0.99482290
0.99466845
0.99456250
0.99444764
0.99440992
0.99437285
0.99429637
0.99426463
0.99424154
0.99424776
0.99424910
0.99425154
0.99427273
0.99429146
0.99437735
0.99439998
0.99444841
0.99452835
0.99456684
0.99471245
0.99481981
0.99497341
0.99514296
0.99530986
0.99553060
0.99577369
0.99601849
0.99628260
0.99661051
0.99693536
0.99729948
0.99771010
0.99812713
0.99854154
0.99891919
0.99929325
0.99966449
1.00005660
1.00040360
1.00069696
1.00096432
1.00119136
1.00139340
1.00153829
1.00169595
1.00181425
1.00194323
1.00207373
1.00212995
1.00216712
1.00224822
1.00229569
1.00230309
1.00237288
1.00236968
1.00234690
1.00242577
1.00240087
1.00242486
1.00240978
1.00236895
1.00238056
1.00236927
1.00236866
1.00237189
1.00238629
1.00243003
1.00242256
1.00236335
1.00241331
1.00245828
1.00248642
1.00252142
1.00256869
1.00262441
1.00270843
1.00283887
1.00293230
1.00306623
1.00326582
1.00341701
1.00364090
1.00390079
1.00419803
1.00459766
1.00510367
1.00570226
1.00651811
1.00760687
1.00898446
1.01089468
1.01326825
1.01618789
1.01912507
1.02084844
1.01953932
1.01170934
0.98807796
0.92939550
0.80859100
0.63273790
0.45866108
0.31911317
0.21725581
0.14617868
0.09772284
0.06509987
0.04328591
0.02875372
0.01909186
0.01267474
0.00841476
0.00558728
0.00371057
0.00246477
0.00163762
0.00108831
0.00072342
0.00048098
0.00031985
0.00021274
0.00014152
0.00009416
0.00006265
0.00004169
0.00002775
0.00001847
0.00001229
0.00000818
0.00000545
0.00000362
0.00000241
0.00000161
0.00000107
0.00000071
0.00000047
0.00000031
0.00000021
0.00000014
0.00000009
0.00000006
0.00000004
0.00000003
0.00000002
0.00000001
0.00000001
0.00000001
0.00000000
0.00000000
0.00000000
0.00000000
0.00000000
0.00000000
0.00000000
0.00000000
0.00000000
0.00000000
0.00000000
0.00000000
0.00000000
0.00000000
0.00000000
0.00000000
0.00000000
0.00000000
0.00000000
0.00000000
0.00000000
0.00000000
0.00000000
0.00000000
0.00000000
0.00000000
0.00000000
0.00000000
0.00000000
0.00000000
0.00000000
0.00000000
0.00000000
0.00000000
0.00000000
0.00000000
0.00000000
0.00000000
0.00000000
0.00000000
0.00000000
0.00000000
0.00000000
0.00000000
0.00000000
0.00000000
0.00000000
0.00000000
0.00000000
0.00000000
0.00000000
0.00000000
0.00000000
0.00000000
0.00000000
0.00000000
0.00000000
0.00000000
0.00000000
0.00000000
0.00000000
0.00000000
0.00000000
0.00000000
0.00000000
0.00000000
0.00000000
0.00000000
0.00000000
0.00000000
0.00000000
0.00000000
0.00000000
0.00000000
0.00000000
0.00000000
0.00000000
0.00000000
0.00000000
0.00084552
0.00085729
0.00088093
0.00091667
0.00096486
0.00102594
0.00110048
0.00118918
0.00129285
0.00141243
0.00154897
0.00170369
0.00187792
0.00207313
0.00229095
0.00253316
0.00280169
0.00309864
0.00342626
0.00378701
0.00418349
0.00461852
0.00509509
0.00561639
0.00618581
0.00680697
0.00748367
0.00821994
0.00902004
0.00988843
0.01082982
0.01184913
0.01295152
0.01414236
0.01542727
0.01681207
0.01830282
0.01990579
0.02162745
0.02347450
0.02545381
0.02757244
0.02983762
0.03225675
0.03483736
0.03758712
0.04051379
0.04362524
0.04692939
0.05043421
0.05414769
0.05807779
0.06223248
0.06661961
0.07124696
0.07612219
0.08125276
0.08664598
0.09230889
0.09824828
0.10447062
0.11098205
0.11778834
0.12489483
0.13230640
0.14002747
0.14806191
0.15641306
0.16508363
0.17407576
0.18339089
0.19302980
0.20299258
0.21327856
0.22388635
0.23481377
0.24605786
0.25761487
0.26948026
0.28164867
0.29411391
0.30686903
0.31990624
0.33321699
0.34679193
0.36062098
0.37469333
0.38899744
0.40352112
0.41825155
0.43317529
0.44827838
0.46354633
0.47896421
0.49451671
0.51018815
0.52596260
0.54182393
0.55775586
0.57374207
0.58976623
0.60581213
0.62186373
0.63790528
0.65392135
0.66989698
0.68581774
0.70166981
0.71744008
0.73311622
0.74868672
0.76414097
0.77946927
0.79466286
0.80971388
0.82461531
0.83936086
0.85394481
0.86836166
0.88260571
0.89667026
0.91054628
0.92422026
0.93767026
0.95085920
0.96372292
0.97614992
0.98794804
0.99879514
1.00818493
1.01542275
1.01995519
1.02181566
1.02198402
1.02126857
1.02020193
1.01908797
1.01809038
1.01729252
1.01673594
1.01644149
1.01641733
1.01665711
1.01713328
1.01778819
1.01852353
1.01918522
1.01955102
1.01935068
1.01843758
1.01710318
1.01626878
1.01698152
1.01848086
1.01986284
1.02067956
1.02081948
1.02019410
1.01865988
1.01610815
1.01278714
1.00933621
1.00630766
1.00382035
1.00181204
1.00020852
0.99894892
0.99797457
0.99720926
0.99661894
0.99615780
0.99581364
0.99554622
0.99534890
0.99519722
0.99507118
0.99498464
0.99491516
0.99485011
0.99480181
0.99477213
0.99474843
0.99472911
0.99471609
0.99471466
0.99472477
0.99475196
0.99478109
0.99482385
0.99487772
0.99493342
0.99501152
0.99511446
0.99523166
0.99535640
0.99550941
0.99568737
0.99590452
0.99613603
0.99641607
0.99673022
0.99707659
0.99745827
0.99788449
0.99834286
0.99879341
0.99924614
0.99968298
1.00010829
1.00051599
1.00088566
1.00121471
1.00149325
1.00173875
1.00194964
1.00212890
1.00229169
1.00242300
1.00253830
1.00263794
1.00270842
1.00276525
1.00283354
1.00287694
1.00290958
1.00293223
1.00295451
1.00295844
1.00297304
1.00297831
1.00298042
1.00297696
1.00298072
1.00297529
1.00296555
1.00297032
1.00298877
1.00301180
1.00304746
1.00306375
1.00309330
1.00313893
1.00320451
1.00327052
1.00336663
1.00348830
1.00361891
1.00377985
1.00398361
1.00421434
1.00448828
1.00481206
1.00518024
1.00561210
1.00611263
1.00670218
1.00740232
1.00822032
1.00919563
1.01036037
1.01175055
1.01339058
1.01532051
1.01748458
1.01975205
1.02179573
1.02306335
1.02284825
1.01984750
1.00978611
0.98129663
0.90581763
0.74010933
0.53381919
0.36272774
0.24058804
0.15818484
0.10377644
0.06811594
0.04477635
0.02948540
0.01944898
0.01284822
0.00849883
0.00562812
0.00373063
0.00247486
0.00164292
0.00109128
0.00072521
0.00048213
0.00032064
0.00021330
0.00014192
0.00009445
0.00006286
0.00004185
0.00002786
0.00001855
0.00001235
0.00000822
0.00000547
0.00000364
0.00000242
0.00000161
0.00000107
0.00000071
0.00000048
0.00000032
0.00000021
0.00000014
0.00000009
0.00000006
0.00000004
0.00000003
0.00000002
0.00000001
0.00000001
0.00000001
0.00000000
0.00000000
0.00000000
0.00000000
0.00000000
0.00000000
0.00000000
0.00000000
0.00000000
0.00000000
0.00000000
0.00000000
0.00000000
0.00000000
0.00000000
0.00000000
0.00000000
0.00000000
0.00000000
0.00000000
0.00000000
0.00000000
0.00000000
0.00000000
0.00000000
0.00000000
0.00000000
0.00000000
0.00000000
0.00000000
0.00000000
0.00000000
0.00000000
0.00000000
0.00000000
0.00000000
0.00000000
0.00000000
0.00000000
0.00000000
0.00000000
0.00000000
0.00000000
0.00000000
0.00000000
0.00000000
0.00000000
0.00000000
0.00000000
0.00000000
0.00000000
0.00000000
0.00000000
0.00000000
0.00000000
0.00000000
0.00000000
0.00000000
0.00000000
0.00000000
0.00000000
0.00000000
0.00000000
0.00000000
0.00000000
0.00000000
0.00000000
0.00000000
0.00000000
0.00000000
0.00000000
0.00000000
0.00000000
0.00000000
0.00000000
0.00000000
0.00000000
0.00000000
0.00000000
0.00084552
0.00085729
0.00088093
0.00091667
0.00096486
0.00102594
0.00110048
0.00118918
0.00129285
0.00141243
0.00154897
0.00170369
0.00187792
0.00207313
0.00229095
0.00253316
0.00280169
0.00309864
0.00342626
0.00378701
0.00418349
0.00461852
0.00509509
0.00561639
0.00618581
0.00680697
0.00748367
0.00821994
0.00902004
0.00988843
0.01082982
0.01184913
0.01295152
0.01414236
0.01542727
0.01681207
0.01830282
0.01990578
0.02162745
0.02347450
0.02545381
0.02757243
0.02983762
0.03225674
0.03483735
0.03758711
0.04051378
0.04362522
0.04692937
0.05043419
0.05414766
0.05807776
0.06223244
0.06661957
0.07124692
0.07612213
0.08125271
0.08664592
0.09230882
0.09824819
0.10447052
0.11098195
0.11778823
0.12489470
0.13230626
0.14002731
0.14806173
0.15641286
0.16508341
0.17407551
0.18339061
0.19302949
0.20299222
0.21327816
0.22388590
0.23481325
0.24605728
0.25761422
0.26947952
0.28164781
0.29411294
0.30686791
0.31990496
0.33321552
0.34679025
0.36061905
0.37469110
0.38899488
0.40351818
0.41824816
0.43317140
0.44827390
0.46354117
0.47895829
0.49450989
0.51018032
0.52595361
0.54181360
0.55774401
0.57372847
0.58975064
0.60579425
0.62184324
0.63788177
0.65389439
0.66986603
0.68578217
0.70162887
0.71739285
0.73306159
0.74862330
0.76406702
0.77938259
0.79456061
0.80959233
0.82446955
0.83918432
0.85372855
0.86809343
0.88226852
0.89624033
0.90999021
0.92349101
0.93670202
0.94956138
0.96197490
0.97380087
0.98483160
0.99477718
1.00326727
1.00990387
1.01442749
1.01691755
1.01789056
1.01790114
1.01739589
1.01668268
1.01594654
1.01529350
1.01478583
1.01446304
1.01435047
1.01445489
1.01475487
1.01519465
1.01568781
1.01611858
1.01635083
1.01626346
1.01584036
1.01527889
1.01500859
1.01539338
1.01617337
1.01692097
1.01733760
1.01726483
1.01660519
1.01529464
1.01334402
1.01093347
1.00839368
1.00602524
1.00396303
1.00222494
1.00079344
0.99963261
0.99869882
0.99795155
0.99736079
0.99689282
0.99652658
0.99623886
0.99601414
0.99583597
0.99569244
0.99557761
0.99548247
0.99540516
0.99534052
0.99528834
0.99524706
0.99521330
0.99518714
0.99517010
0.99516205
0.99516169
0.99517060
0.99519008
0.99522056
0.99526141
0.99531435
0.99538548
0.99547243
0.99557621
0.99570232
0.99585652
0.99604360
0.99626527
0.99653240
0.99684642
0.99720498
0.99761234
0.99806846
0.99856169
0.99907505
0.99959278
1.00010043
1.00058237
1.00103224
1.00143548
1.00178929
1.00209419
1.00235518
1.00257951
1.00277014
1.00293293
1.00307027
1.00318373
1.00327506
1.00334907
1.00340831
1.00345789
1.00349648
1.00352242
1.00353954
1.00355383
1.00356036
1.00356454
1.00356808
1.00357071
1.00357363
1.00357668
1.00357653
1.00357690
1.00358500
1.00360510
1.00362874
1.00366139
1.00370427
1.00375978
1.00383221
1.00392117
1.00403142
1.00417137
1.00433729
1.00453278
1.00476530
1.00504326
1.00537140
1.00575539
1.00620146
1.00672020
1.00732041
1.00801556
1.00881952
1.00975016
1.01082083
1.01204688
1.01343704
1.01499063
1.01668769
1.01847931
1.02025559
1.02183305
1.02294198
1.02322806
1.02228225
1.01942262
1.01274760
0.99651304
0.95209499
0.83028417
0.60727239
0.40541510
0.26258676
0.16900672
0.10900476
0.07062236
0.04597216
0.03005333
0.01971746
0.01297471
0.00855851
0.00565661
0.00374465
0.00248218
0.00164708
0.00109387
0.00072697
0.00048340
0.00032157
0.00021399
0.00014244
0.00009483
0.00006314
0.00004205
0.00002800
0.00001865
0.00001242
0.00000827
0.00000551
0.00000367
0.00000244
0.00000162
0.00000108
0.00000072
0.00000048
0.00000032
0.00000021
0.00000014
0.00000009
0.00000006
0.00000004
0.00000003
0.00000002
0.00000001
0.00000001
0.00000001
0.00000000
0.00000000
0.00000000
0.00000000
0.00000000
0.00000000
0.00000000
0.00000000
0.00000000
0.00000000
0.00000000
0.00000000
0.00000000
0.00000000
0.00000000
0.00000000
0.00000000
0.00000000
0.00000000
0.00000000
0.00000000
0.00000000
0.00000000
0.00000000
0.00000000
0.00000000
0.00000000
0.00000000
0.00000000
0.00000000
0.00000000
0.00000000
0.00000000
0.00000000
0.00000000
0.00000000
0.00000000
0.00000000
0.00000000
0.00000000
0.00000000
0.00000000
0.00000000
0.00000000
0.00000000
0.00000000
0.00000000
0.00000000
0.00000000
0.00000000
0.00000000
0.00000000
0.00000000
0.00000000
0.00000000
0.00000000
0.00000000
0.00000000
0.00000000
0.00000000
0.00000000
0.00000000
0.00000000
0.00000000
0.00000000
0.00000000
0.00000000
0.00000000
0.00000000
0.00000000
0.00000000
0.00000000
0.00000000
0.00000000
0.00000000
0.00000000
0.00000000
0.00000000
0.00000000
0.00084553
0.00085729
0.00088093
0.00091667
0.00096486
0.00102594
0.00110048
0.00118918
0.00129285
0.00141243
0.00154897
0.00170369
0.00187792
0.00207313
0.00229095
0.00253316
0.00280169
0.00309864
0.00342626
0.00378701
0.00418350
0.00461852
0.00509509
0.00561639
0.00618581
0.00680697
0.00748367
0.00821994
0.00902004
0.00988843
0.01082982
0.01184913
0.01295152
0.01414236
0.01542726
0.01681207
0.01830281
0.01990578
0.02162745
0.02347450
0.02545380
0.02757243
0.02983761
0.03225673
0.03483734
0.03758709
0.04051376
0.04362520
0.04692935
0.05043416
0.05414763
0.05807773
0.06223240
0.06661952
0.07124686
0.07612207
0.08125264
0.08664584
0.09230873
0.09824810
0.10447042
0.11098183
0.11778809
0.12489454
0.13230609
0.14002712
0.14806152
0.15641262
0.16508314
0.17407521
0.18339027
0.19302911
0.20299180
0.21327769
0.22388536
0.23481265
0.24605659
0.25761344
0.26947863
0.28164681
0.29411179
0.30686660
0.31990346
0.33321380
0.34678828
0.36061679
0.37468851
0.38899190
0.40351475
0.41824422
0.43316686
0.44826869
0.46353519
0.47895140
0.49450198
0.51017123
0.52594317
0.54180162
0.55773026
0.57371270
0.58973255
0.60577352
0.62181946
0.63785452
0.65386313
0.66983016
0.68574099
0.70158154
0.71733838
0.73299876
0.74855067
0.76398281
0.77928459
0.79444606
0.80945777
0.82431055
0.83899516
0.85350179
0.86781925
0.88193384
0.89582760
0.90947571
0.92284271
0.93587706
0.94850354
0.96061357
0.97205408
0.98261828
0.99204507
1.00004010
1.00633370
1.01078480
1.01348298
1.01477050
1.01509366
1.01485786
1.01436048
1.01377456
1.01319151
1.01268326
1.01229271
1.01207169
1.01204978
1.01221614
1.01251730
1.01287811
1.01321283
1.01343432
1.01348337
1.01337303
1.01322086
1.01321831
1.01349441
1.01394071
1.01434644
1.01452355
1.01434410
1.01373204
1.01265907
1.01116093
1.00936058
1.00744609
1.00559485
1.00391343
1.00244530
1.00119722
1.00015542
0.99929541
0.99859222
0.99802239
0.99756198
0.99719148
0.99689309
0.99665274
0.99645709
0.99629654
0.99616360
0.99605206
0.99595782
0.99587755
0.99580931
0.99575137
0.99570213
0.99566110
0.99562743
0.99560101
0.99558169
0.99557018
0.99556742
0.99557404
0.99559034
0.99561807
0.99565958
0.99571681
0.99579271
0.99589133
0.99601824
0.99617935
0.99638166
0.99663300
0.99694003
0.99730743
0.99773943
0.99823552
0.99878619
0.99937403
0.99997428
1.00056067
1.00111116
1.00161109
1.00205184
1.00243277
1.00275828
1.00303418
1.00326717
1.00346317
1.00362678
1.00376145
1.00387102
1.00395849
1.00402801
1.00408165
1.00412136
1.00415027
1.00416932
1.00417993
1.00418469
1.00418464
1.00418168
1.00417795
1.00417485
1.00417204
1.00416991
1.00416880
1.00417079
1.00417913
1.00419548
1.00422089
1.00425746
1.00430807
1.00437551
1.00446300
1.00457320
1.00470956
1.00487723
1.00507833
1.00531716
1.00560026
1.00593501
1.00632876
1.00678872
1.00732396
1.00794601
1.00866516
1.00949555
1.01045033
1.01154385
1.01278573
1.01418188
1.01572611
1.01739431
1.01913490
1.02085722
1.02241880
1.02361916
1.02420337
1.02386789
1.02224335
1.01872493
1.01192584
0.99791549
0.96459031
0.87668672
0.65611119
0.43392394
0.27655760
0.17546568
0.11192864
0.07193037
0.04654976
0.03030393
0.01982388
0.01301906
0.00857705
0.00566490
0.00374907
0.00248516
0.00164945
0.00109588
0.00072867
0.00048480
0.00032269
0.00021487
0.00014310
0.00009532
0.00006350
0.00004231
0.00002818
0.00001878
0.00001251
0.00000833
0.00000555
0.00000369
0.00000246
0.00000164
0.00000109
0.00000073
0.00000048
0.00000032
0.00000021
0.00000014
0.00000009
0.00000006
0.00000004
0.00000003
0.00000002
0.00000001
0.00000001
0.00000001
0.00000000
0.00000000