# vtk DataFile Version 3.0
Concentration output
ASCII
DATASET STRUCTURED_POINTS
DIMENSIONS 398 98 1
ORIGIN 0 0 0
SPACING 0.03 0.03 1.0
POINT_DATA 39004
SCALARS Variable float 1
LOOKUP_TABLE default
0.00010952
0.00011219
0.00011757
0.00012577
0.00013693
0.00015126
0.00016902
0.00019052
0.00021615
0.00024633
0.00028160
0.00032254
0.00036982
0.00042420
0.00048655
0.00055781
0.00063906
0.00073151
0.00083646
0.00095540
0.00108994
0.00124187
0.00141315
0.00160594
0.00182258
0.00206566
0.00233797
0.00264257
0.00298275
0.00336210
0.00378448
0.00425408
0.00477537
0.00535317
0.00599265
0.00669932
0.00747906
0.00833813
0.00928317
0.01032123
0.01145973
0.01270652
0.01406983
0.01555831
0.01718100
0.01894732
0.02086709
0.02295049
0.02520805
0.02765063
0.03028940
0.03313581
0.03620157
0.03949857
0.04303890
0.04683476
0.05089845
0.05524227
0.05987851
0.06481937
0.07007689
0.07566289
0.08158892
0.08786616
0.09450535
0.10151674
0.10890999
0.11669410
0.12487735
0.13346718
0.14247017
0.15189193
0.16173707
0.17200906
0.18271027
0.19384183
0.20540360
0.21739416
0.22981073
0.24264914
0.25590385
0.26956786
0.28363277
0.29808876
0.31292456
0.32812754
0.34368368
0.35957761
0.37579268
0.39231100
0.40911349
0.42617996
0.44348920
0.46101900
0.47874631
0.49664731
0.51469749
0.53287180
0.55114471
0.56949037
0.58788273
0.60629565
0.62470304
0.64307903
0.66139806
0.67963509
0.69776569
0.71576624
0.73361409
0.75128776
0.76876713
0.78603378
0.80307133
0.81986608
0.83640784
0.85269127
0.86871792
0.88449943
0.90006241
0.91545619
0.93076541
0.94613100
0.96178672
0.97812110
0.99572608
1.01508916
1.03365629
1.03548532
1.02938357
1.02387321
1.02164041
1.02366420
1.02941060
1.03687618
1.04125102
1.04237220
1.04457251
1.04904691
1.05650511
1.06761445
1.08093201
1.08525226
1.08118752
1.07550299
1.06524377
1.05664139
1.04883227
1.03628737
1.02481750
1.01645100
1.01072941
1.00743494
1.00687635
1.00884514
1.01285470
1.01425630
1.01297826
1.00999872
1.00645282
1.00307277
1.00024474
0.99780936
0.99574969
0.99410575
0.99308918
0.99269189
0.99259978
0.99260991
0.99262340
0.99261427
0.99268593
0.99269637
0.99271781
0.99269620
0.99269495
0.99266912
0.99274502
0.99284489
0.99280806
0.99282371
0.99286803
0.99287482
0.99292172
0.99293804
0.99305249
0.99306032
0.99312867
0.99323859
0.99336747
0.99348441
0.99360951
0.99376730
0.99394785
0.99410861
0.99432722
0.99456361
0.99475239
0.99498241
0.99521729
0.99541431
0.99554964
0.99568159
0.99580783
0.99592088
0.99598311
0.99605179
0.99601675
0.99591211
0.99582094
0.99565554
0.99539777
0.99498387
0.99452055
0.99388000
0.99291576
0.99142549
0.98918466
0.98558554
0.97968037
0.96976542
0.95359512
0.92650477
0.87929458
0.80244173
0.69580388
0.57175180
0.44789949
0.33756096
0.24678830
0.17621090
0.12354342
0.08541439
0.05842640
0.03964336
0.02673464
0.01794651
0.01200582
0.00801115
0.00533561
0.00354883
0.00235814
0.00156591
0.00103940
0.00068974
0.00045765
0.00030365
0.00020149
0.00013371
0.00008874
0.00005891
0.00003911
0.00002597
0.00001725
0.00001146
0.00000762
0.00000506
0.00000337
0.00000224
0.00000149
0.00000099
0.00000066
0.00000044
0.00000029
0.00000019
0.00000013
0.00000009
0.00000006
0.00000004
0.00000003
0.00000002
0.00000001
0.00000001
0.00000001
0.00000000
0.00000000
0.00000000
0.00000000
0.00000000
0.00000000
0.00000000
0.00000000
0.00000000
0.00000000
0.00000000
0.00000000
0.00000000
0.00000000
0.00000000
0.00000000
0.00000000
0.00000000
0.00000000
0.00000000
0.00000000
0.00000000
0.00000000
0.00000000
0.00000000
0.00000000
0.00000000
0.00000000
0.00000000
0.00000000
0.00000000
0.00000000
0.00000000
0.00000000
0.00000000
0.00000000
0.00000000
0.00000000
0.00000000
0.00000000
0.00000000
0.00000000
0.00000000
0.00000000
0.00000000
0.00000000
0.00000000
0.00000000
0.00000000
0.00000000
0.00000000
0.00000000
0.00000000
0.00000000
0.00000000
0.00000000
0.00000000
0.00000000
0.00000000
0.00000000
0.00000000
0.00000000
0.00000000
0.00000000
0.00000000
0.00000000
0.00000000
0.00000000
0.00000000
0.00000000
0.00000000
0.00000000
0.00000000
0.00000000
0.00000000
0.00000000
0.00000000
0.00000000
0.00000000
0.00000000
0.00000000
0.00000000
0.00000000
0.00000000
0.00000000
0.00000000
0.00000000
0.00000000
0.00000000
0.00000000
0.00000000
0.00000000
0.00000000
0.00000000
0.00000000
0.00000000
0.00000000
0.00000000
0.00000000
0.00000000
0.00000000
0.00000000
0.00000000
0.00000000
0.00000000
0.00000000
0.00000000
0.00000000
0.00000000
0.00000000
0.00000000
0.00000000
0.00000000
0.00000000
0.00000000
0.00000000
0.00000000
0.00000000
0.00000000
0.00000000
0.00000000
0.00000000
0.00000000
0.00000000
0.00000000
0.00010952
0.00011219
0.00011757
0.00012577
0.00013693
0.00015126
0.00016902
0.00019052
0.00021615
0.00024633
0.00028160
0.00032254
0.00036982
0.00042420
0.00048655
0.00055781
0.00063906
0.00073151
0.00083646
0.00095540
0.00108994
0.00124187
0.00141315
0.00160594
0.00182258
0.00206566
0.00233797
0.00264257
0.00298275
0.00336210
0.00378448
0.00425408
0.00477537
0.00535318
0.00599265
0.00669932
0.00747906
0.00833813
0.00928317
0.01032123
0.01145973
0.01270652
0.01406983
0.01555831
0.01718100
0.01894732
0.02086709
0.02295049
0.02520805
0.02765062
0.03028940
0.03313581
0.03620156
0.03949856
0.04303889
0.04683475
0.05089844
0.05524226
0.05987850
0.06481935
0.07007686
0.07566286
0.08158889
0.08786612
0.09450530
0.10151668
0.10890993
0.11669403
0.12487727
0.13346709
0.14247007
0.15189182
0.16173694
0.17200893
0.18271013
0.19384167
0.20540344
0.21739399
0.22981055
0.24264896
0.25590367
0.26956769
0.28363261
0.29808862
0.31292445
0.32812747
0.34368365
0.35957763
0.37579277
0.39231116
0.40911375
0.42618032
0.44348965
0.46101956
0.47874698
0.49664808
0.51469835
0.53287271
0.55114563
0.56949123
0.58788345
0.60629611
0.62470310
0.64307850
0.66139669
0.67963258
0.69776165
0.71576020
0.73360545
0.75127575
0.76875077
0.78601177
0.80304191
0.81982680
0.83635517
0.85262000
0.86862015
0.88436285
0.89986734
0.91517032
0.93033378
0.94545594
0.96068485
0.97622756
0.99230815
1.00887590
1.02413729
1.03063378
1.02627958
1.02065121
1.01793479
1.02022738
1.02654322
1.03392638
1.03743191
1.03931100
1.04192302
1.04611063
1.05235184
1.06083434
1.07053411
1.07619003
1.07276976
1.06636172
1.05794736
1.05025046
1.04273506
1.03265840
1.02240483
1.01472122
1.00938587
1.00627124
1.00603362
1.00850513
1.01243046
1.01437125
1.01317722
1.00997140
1.00632002
1.00303923
1.00013939
0.99772069
0.99575342
0.99401627
0.99309752
0.99273528
0.99279442
0.99278892
0.99289724
0.99286487
0.99282125
0.99274695
0.99281102
0.99282007
0.99289647
0.99278147
0.99283207
0.99295125
0.99282102
0.99284927
0.99278207
0.99280897
0.99304589
0.99292353
0.99307063
0.99297230
0.99312158
0.99322018
0.99341852
0.99360150
0.99378245
0.99377301
0.99396870
0.99421943
0.99432554
0.99460876
0.99492439
0.99501764
0.99535662
0.99552573
0.99578032
0.99583401
0.99607229
0.99613164
0.99624625
0.99646754
0.99655411
0.99644541
0.99648787
0.99639309
0.99625678
0.99601561
0.99580885
0.99556038
0.99496565
0.99440848
0.99370519
0.99231164
0.99018669
0.98594571
0.97704784
0.95875617
0.92154409
0.85407151
0.74938768
0.61761320
0.48112207
0.35903751
0.25967739
0.18354873
0.12755942
0.08754628
0.05953045
0.04020307
0.02701285
0.01808204
0.01207038
0.00804107
0.00534898
0.00355448
0.00236033
0.00156662
0.00103952
0.00068967
0.00045754
0.00030356
0.00020142
0.00013366
0.00008871
0.00005889
0.00003910
0.00002597
0.00001725
0.00001146
0.00000762
0.00000506
0.00000337
0.00000224
0.00000149
0.00000099
0.00000066
0.00000044
0.00000029
0.00000019
0.00000013
0.00000009
0.00000006
0.00000004
0.00000003
0.00000002
0.00000001
0.00000001
0.00000001
0.00000000
0.00000000
0.00000000
0.00000000
0.00000000
0.00000000
0.00000000
0.00000000
0.00000000
0.00000000
0.00000000
0.00000000
0.00000000
0.00000000
0.00000000
0.00000000
0.00000000
0.00000000
0.00000000
0.00000000
0.00000000
0.00000000
0.00000000
0.00000000
0.00000000
0.00000000
0.00000000
0.00000000
0.00000000
0.00000000
0.00000000
0.00000000
0.00000000
0.00000000
0.00000000
0.00000000
0.00000000
0.00000000
0.00000000
0.00000000
0.00000000
0.00000000
0.00000000
0.00000000
0.00000000
0.00000000
0.00000000
0.00000000
0.00000000
0.00000000
0.00000000
0.00000000
0.00000000
0.00000000
0.00000000
0.00000000
0.00000000
0.00000000
0.00000000
0.00000000
0.00000000
0.00000000
0.00000000
0.00000000
0.00000000
0.00000000
0.00000000
0.00000000
0.00000000
0.00000000
0.00000000
0.00000000
0.00000000
0.00000000
0.00000000
0.00000000
0.00000000
0.00000000
0.00000000
0.00000000
0.00000000
0.00000000
0.00000000
0.00000000
0.00000000
0.00000000
0.00000000
0.00000000
0.00000000
0.00000000
0.00000000
0.00000000
0.00000000
0.00000000
0.00000000
0.00000000
0.00000000
0.00000000
0.00000000
0.00000000
0.00000000
0.00000000
0.00000000
0.00000000
0.00000000
0.00000000
0.00000000
0.00000000
0.00000000
0.00000000
0.00000000
0.00000000
0.00000000
0.00000000
0.00000000
0.00000000
0.00000000
0.00000000
0.00000000
0.00000000
0.00000000
0.00000000
0.00000000
0.00000000
0.00000000
0.00010952
0.00011219
0.00011757
0.00012577
0.00013693
0.00015126
0.00016902
0.00019052
0.00021615
0.00024633
0.00028160
0.00032254
0.00036982
0.00042420
0.00048655
0.00055781
0.00063906
0.00073151
0.00083646
0.00095540
0.00108994
0.00124187
0.00141315
0.00160594
0.00182258
0.00206566
0.00233797
0.00264257
0.00298275
0.00336210
0.00378449
0.00425408
0.00477537
0.00535318
0.00599265
0.00669932
0.00747906
0.00833813
0.00928317
0.01032123
0.01145973
0.01270652
0.01406983
0.01555831
0.01718100
0.01894732
0.02086709
0.02295049
0.02520804
0.02765062
0.03028939
0.03313580
0.03620155
0.03949855
0.04303887
0.04683473
0.05089841
0.05524223
0.05987846
0.06481931
0.07007681
0.07566280
0.08158882
0.08786603
0.09450521
0.10151658
0.10890980
0.11669389
0.12487711
0.13346691
0.14246987
0.15189160
0.16173670
0.17200866
0.18270984
0.19384136
0.20540311
0.21739365
0.22981020
0.24264861
0.25590332
0.26956735
0.28363230
0.29808834
0.31292423
0.32812732
0.34368359
0.35957768
0.37579295
0.39231150
0.40911426
0.42618103
0.44349057
0.46102069
0.47874833
0.49664963
0.51470006
0.53287453
0.55114747
0.56949298
0.58788493
0.60629709
0.62470330
0.64307753
0.66139410
0.67962776
0.69775388
0.71574855
0.73358878
0.75125261
0.76871931
0.78596955
0.80298567
0.81975205
0.83625551
0.85248606
0.86843787
0.88411061
0.89951120
0.91465594
0.92957230
0.94429871
0.95887738
0.97332683
0.98755844
1.00115239
1.01281283
1.01934987
1.01875783
1.01456124
1.01151671
1.01425885
1.02138444
1.02789301
1.03195421
1.03474947
1.03766244
1.04134764
1.04609260
1.05180274
1.05757892
1.06089099
1.05910896
1.05460564
1.04864059
1.04240335
1.03576789
1.02791071
1.01989970
1.01327146
1.00913710
1.00708603
1.00694317
1.00841020
1.01046595
1.01146369
1.01063466
1.00832950
1.00565376
1.00297282
1.00054099
0.99826124
0.99642892
0.99507296
0.99410718
0.99367118
0.99355973
0.99342079
0.99340911
0.99345701
0.99332972
0.99323106
0.99319819
0.99312533
0.99301874
0.99308612
0.99315103
0.99303877
0.99303070
0.99299501
0.99306481
0.99311377
0.99312432
0.99305790
0.99315847
0.99317590
0.99327425
0.99337289
0.99344783
0.99361368
0.99377115
0.99389196
0.99420126
0.99441384
0.99465996
0.99495259
0.99517419
0.99553657
0.99583513
0.99609230
0.99655147
0.99677135
0.99711482
0.99724696
0.99758368
0.99779027
0.99805246
0.99836251
0.99849692
0.99875238
0.99892173
0.99912333
0.99948170
0.99981960
1.00037191
1.00114159
1.00226063
1.00413696
1.00638714
1.00912082
1.01026802
1.00409398
0.98280533
0.93517102
0.84475923
0.70676152
0.54764878
0.40186318
0.28497395
0.19768798
0.13516399
0.09152090
0.06156101
0.04122012
0.02751267
0.01832276
0.01218357
0.00809270
0.00537154
0.00356371
0.00236368
0.00156755
0.00103954
0.00068943
0.00045728
0.00030335
0.00020127
0.00013357
0.00008866
0.00005886
0.00003909
0.00002596
0.00001725
0.00001146
0.00000762
0.00000506
0.00000337
0.00000224
0.00000149
0.00000099
0.00000066
0.00000044
0.00000029
0.00000019
0.00000013
0.00000009
0.00000006
0.00000004
0.00000003
0.00000002
0.00000001
0.00000001
0.00000001
0.00000000
0.00000000
0.00000000
0.00000000
0.00000000
0.00000000
0.00000000
0.00000000
0.00000000
0.00000000
0.00000000
0.00000000
0.00000000
0.00000000
0.00000000
0.00000000
0.00000000
0.00000000
0.00000000
0.00000000
0.00000000
0.00000000
0.00000000
0.00000000
0.00000000
0.00000000
0.00000000
0.00000000
0.00000000
0.00000000
0.00000000
0.00000000
0.00000000
0.00000000
0.00000000
0.00000000
0.00000000
0.00000000
0.00000000
0.00000000
0.00000000
0.00000000
0.00000000
0.00000000
0.00000000
0.00000000
0.00000000
0.00000000
0.00000000
0.00000000
0.00000000
0.00000000
0.00000000
0.00000000
0.00000000
0.00000000
0.00000000
0.00000000
0.00000000
0.00000000
0.00000000
0.00000000
0.00000000
0.00000000
0.00000000
0.00000000
0.00000000
0.00000000
0.00000000
0.00000000
0.00000000
0.00000000
0.00000000
0.00000000
0.00000000
0.00000000
0.00000000
0.00000000
0.00000000
0.00000000
0.00000000
0.00000000
0.00000000
0.00000000
0.00000000
0.00000000
0.00000000
0.00000000
0.00000000
0.00000000
0.00000000
0.00000000
0.00000000
0.00000000
0.00000000
0.00000000
0.00000000
0.00000000
0.00000000
0.00000000
0.00000000
0.00000000
0.00000000
0.00000000
0.00000000
0.00000000
0.00000000
0.00000000
0.00000000
0.00000000
0.00000000
0.00000000
0.00000000
0.00000000
0.00000000
0.00000000
0.00000000
0.00000000
0.00000000
0.00000000
0.00000000
0.00000000
0.00000000
0.00000000
0.00000000
0.00010952
0.00011219
0.00011757
0.00012577
0.00013693
0.00015126
0.00016902
0.00019052
0.00021615
0.00024633
0.00028160
0.00032254
0.00036982
0.00042420
0.00048655
0.00055781
0.00063906
0.00073151
0.00083646
0.00095540
0.00108994
0.00124187
0.00141315
0.00160594
0.00182258
0.00206566
0.00233797
0.00264257
0.00298275
0.00336210
0.00378449
0.00425408
0.00477537
0.00535318
0.00599265
0.00669932
0.00747906
0.00833813
0.00928317
0.01032123
0.01145973
0.01270652
0.01406983
0.01555831
0.01718100
0.01894732
0.02086709
0.02295048
0.02520804
0.02765061
0.03028938
0.03313579
0.03620154
0.03949853
0.04303885
0.04683470
0.05089837
0.05524218
0.05987841
0.06481924
0.07007674
0.07566271
0.08158871
0.08786591
0.09450507
0.10151641
0.10890962
0.11669368
0.12487687
0.13346664
0.14246957
0.15189127
0.16173634
0.17200827
0.18270941
0.19384091
0.20540263
0.21739315
0.22980968
0.24264809
0.25590280
0.26956685
0.28363184
0.29808793
0.31292390
0.32812709
0.34368349
0.35957775
0.37579322
0.39231200
0.40911502
0.42618208
0.44349193
0.46102238
0.47875034
0.49665194
0.51470262
0.53287726
0.55115025
0.56949563
0.58788720
0.60629867
0.62470376
0.64307633
0.66139057
0.67962106
0.69774295
0.71573211
0.73356523
0.75121996
0.76867504
0.78591041
0.80290738
0.81964879
0.83611913
0.85230485
0.86819451
0.88377899
0.89905138
0.91400606
0.92863597
0.94292551
0.95683459
0.97026438
0.98298987
0.99453980
1.00403633
1.01011566
1.01200238
1.01109246
1.01046050
1.01319397
1.01831940
1.02324063
1.02696752
1.02991100
1.03272654
1.03580303
1.03927322
1.04296289
1.04624734
1.04792238
1.04692546
1.04399159
1.03986047
1.03509748
1.02982741
1.02399928
1.01814772
1.01328938
1.00999439
1.00822636
1.00770826
1.00814802
1.00888398
1.00911530
1.00839417
1.00682473
1.00487301
1.00281951
1.00084724
0.99906417
0.99753288
0.99630676
0.99543211
0.99489351
0.99456222
0.99436285
0.99420719
0.99407974
0.99397150
0.99385930
0.99378409
0.99366008
0.99356932
0.99352239
0.99348116
0.99342522
0.99337160
0.99333759
0.99329346
0.99329384
0.99327970
0.99324880
0.99330340
0.99337110
0.99342700
0.99349395
0.99362201
0.99372773
0.99389726
0.99412645
0.99436352
0.99462297
0.99494087
0.99530259
0.99564871
0.99606022
0.99645241
0.99690576
0.99731430
0.99779156
0.99821044
0.99863726
0.99911692
0.99958274
1.00007133
1.00056097
1.00109247
1.00166066
1.00224227
1.00291004
1.00370737
1.00460742
1.00574828
1.00717301
1.00901696
1.01143177
1.01441095
1.01762486
1.02006000
1.01948507
1.01259027
0.99154079
0.93738341
0.82079201
0.64301993
0.46408028
0.32098736
0.21724549
0.14538568
0.09672612
0.06415932
0.04249426
0.02812606
0.01861173
0.01231596
0.00815102
0.00539574
0.00357276
0.00236637
0.00156781
0.00103905
0.00068883
0.00045679
0.00030300
0.00020105
0.00013343
0.00008858
0.00005882
0.00003907
0.00002595
0.00001725
0.00001146
0.00000762
0.00000507
0.00000337
0.00000224
0.00000149
0.00000099
0.00000066
0.00000044
0.00000029
0.00000020
0.00000013
0.00000009
0.00000006
0.00000004
0.00000003
0.00000002
0.00000001
0.00000001
0.00000001
0.00000000
0.00000000
0.00000000
0.00000000
0.00000000
0.00000000
0.00000000
0.00000000
0.00000000
0.00000000
0.00000000
0.00000000
0.00000000
0.00000000
0.00000000
0.00000000
0.00000000
0.00000000
0.00000000
0.00000000
0.00000000
0.00000000
0.00000000
0.00000000
0.00000000
0.00000000
0.00000000
0.00000000
0.00000000
0.00000000
0.00000000
0.00000000
0.00000000
0.00000000
0.00000000
0.00000000
0.00000000
0.00000000
0.00000000
0.00000000
0.00000000
0.00000000
0.00000000
0.00000000
0.00000000
0.00000000
0.00000000
0.00000000
0.00000000
0.00000000
0.00000000
0.00000000
0.00000000
0.00000000
0.00000000
0.00000000
0.00000000
0.00000000
0.00000000
0.00000000
0.00000000
0.00000000
0.00000000
0.00000000
0.00000000
0.00000000
0.00000000
0.00000000
0.00000000
0.00000000
0.00000000
0.00000000
0.00000000
0.00000000
0.00000000
0.00000000
0.00000000
0.00000000
0.00000000
0.00000000
0.00000000
0.00000000
0.00000000
0.00000000
0.00000000
0.00000000
0.00000000
0.00000000
0.00000000
0.00000000
0.00000000
0.00000000
0.00000000
0.00000000
0.00000000
0.00000000
0.00000000
0.00000000
0.00000000
0.00000000
0.00000000
0.00000000
0.00000000
0.00000000
0.00000000
0.00000000
0.00000000
0.00000000
0.00000000
0.00000000
0.00000000
0.00000000
0.00000000
0.00000000
0.00000000
0.00000000
0.00000000
0.00000000
0.00000000
0.00000000
0.00000000
0.00000000
0.00000000
0.00000000
0.00000000
0.00010952
0.00011219
0.00011757
0.00012577
0.00013693
0.00015126
0.00016902
0.00019052
0.00021615
0.00024633
0.00028160
0.00032254
0.00036982
0.00042420
0.00048655
0.00055781
0.00063906
0.00073151
0.00083646
0.00095540
0.00108994
0.00124187
0.00141316
0.00160594
0.00182259
0.00206566
0.00233797
0.00264257
0.00298275
0.00336210
0.00378449
0.00425408
0.00477537
0.00535318
0.00599266
0.00669932
0.00747906
0.00833813
0.00928317
0.01032123
0.01145973
0.01270652
0.01406983
0.01555831
0.01718100
0.01894732
0.02086708
0.02295048
0.02520803
0.02765060
0.03028937
0.03313577
0.03620151
0.03949850
0.04303882
0.04683466
0.05089833
0.05524212
0.05987834
0.06481916
0.07007664
0.07566260
0.08158858
0.08786575
0.09450488
0.10151620
0.10890937
0.11669340
0.12487656
0.13346629
0.14246918
0.15189084
0.16173586
0.17200775
0.18270885
0.19384031
0.20540200
0.21739249
0.22980900
0.24264740
0.25590212
0.26956619
0.28363122
0.29808740
0.31292346
0.32812679
0.34368337
0.35957785
0.37579357
0.39231266
0.40911602
0.42618347
0.44349373
0.46102461
0.47875300
0.49665500
0.51470603
0.53288091
0.55115398
0.56949922
0.58789034
0.60630095
0.62470464
0.64307515
0.66138647
0.67961299
0.69772962
0.71571196
0.73353632
0.75117993
0.76862097
0.78583863
0.80281316
0.81952586
0.83595896
0.85209542
0.86791854
0.88341106
0.89855370
0.91332223
0.92768235
0.94158030
0.95492688
0.96757127
0.97926318
0.98961030
0.99806649
1.00404213
1.00735059
1.00879868
1.00994977
1.01244378
1.01599806
1.01954610
1.02258661
1.02520966
1.02766482
1.03012765
1.03263024
1.03501756
1.03690744
1.03773442
1.03706388
1.03510881
1.03221971
1.02870299
1.02473985
1.02049621
1.01632804
1.01278830
1.01021099
1.00862708
1.00788307
1.00771465
1.00774040
1.00754034
1.00685922
1.00570496
1.00425964
1.00269730
1.00114612
0.99970508
0.99843304
0.99737871
0.99656403
0.99597144
0.99554850
0.99523531
0.99499618
0.99479015
0.99461849
0.99446261
0.99431524
0.99417826
0.99405314
0.99394255
0.99384013
0.99375153
0.99366708
0.99359590
0.99353521
0.99349114
0.99345523
0.99343225
0.99344260
0.99346850
0.99352066
0.99360203
0.99371151
0.99385282
0.99403122
0.99426667
0.99453237
0.99484447
0.99520394
0.99560889
0.99604483
0.99652041
0.99703108
0.99756898
0.99813522
0.99872834
0.99932744
0.99995432
1.00061279
1.00129648
1.00201196
1.00275528
1.00356658
1.00441710
1.00535405
1.00638323
1.00753640
1.00883612
1.01031486
1.01200553
1.01393376
1.01609748
1.01838372
1.02048463
1.02183326
1.02156008
1.01844570
1.00897008
0.98269290
0.91163234
0.74860622
0.53801444
0.36323044
0.23938854
0.15651269
0.10218578
0.06679212
0.04374269
0.02870602
0.01887365
0.01242939
0.00819691
0.00541210
0.00357700
0.00236616
0.00156635
0.00103756
0.00068766
0.00045598
0.00030249
0.00020074
0.00013326
0.00008849
0.00005877
0.00003905
0.00002595
0.00001725
0.00001147
0.00000762
0.00000507
0.00000337
0.00000224
0.00000149
0.00000099
0.00000066
0.00000044
0.00000029
0.00000020
0.00000013
0.00000009
0.00000006
0.00000004
0.00000003
0.00000002
0.00000001
0.00000001
0.00000001
0.00000000
0.00000000
0.00000000
0.00000000
0.00000000
0.00000000
0.00000000
0.00000000
0.00000000
0.00000000
0.00000000
0.00000000
0.00000000
0.00000000
0.00000000
0.00000000
0.00000000
0.00000000
0.00000000
0.00000000
0.00000000
0.00000000
0.00000000
0.00000000
0.00000000
0.00000000
0.00000000
0.00000000
0.00000000
0.00000000
0.00000000
0.00000000
0.00000000
0.00000000
0.00000000
0.00000000
0.00000000
0.00000000
0.00000000
0.00000000
0.00000000
0.00000000
0.00000000
0.00000000
0.00000000
0.00000000
0.00000000
0.00000000
0.00000000
0.00000000
0.00000000
0.00000000
0.00000000
0.00000000
0.00000000
0.00000000
0.00000000
0.00000000
0.00000000
0.00000000
0.00000000
0.00000000
0.00000000
0.00000000
0.00000000
0.00000000
0.00000000
0.00000000
0.00000000
0.00000000
0.00000000
0.00000000
0.00000000
0.00000000
0.00000000
0.00000000
0.00000000
0.00000000
0.00000000
0.00000000
0.00000000
0.00000000
0.00000000
0.00000000
0.00000000
0.00000000
0.00000000
0.00000000
0.00000000
0.00000000
0.00000000
0.00000000
0.00000000
0.00000000
0.00000000
0.00000000
0.00000000
0.00000000
0.00000000
0.00000000
0.00000000
0.00000000
0.00000000
0.00000000
0.00000000
0.00000000
0.00000000
0.00000000
0.00000000
0.00000000
0.00000000
0.00000000
0.00000000
0.00000000
0.00000000
0.00000000
0.00000000
0.00000000
0.00000000
0.00000000
0.00000000
0.00000000
0.00000000
0.00000000
0.00000000
0.00010952
0.00011219
0.00011757
0.00012577
0.00013693
0.00015126
0.00016902
0.00019052
0.00021615
0.00024633
0.00028160
0.00032254
0.00036982
0.00042420
0.00048655
0.00055781
0.00063906
0.00073151
0.00083646
0.00095540
0.00108994
0.00124187
0.00141316
0.00160594
0.00182259
0.00206566
0.00233797
0.00264257
0.00298275
0.00336210
0.00378449
0.00425408
0.00477538
0.00535318
0.00599266
0.00669932
0.00747906
0.00833813
0.00928318
0.01032123
0.01145973
0.01270652
0.01406984
0.01555831
0.01718100
0.01894732
0.02086708
0.02295047
0.02520802
0.02765059
0.03028935
0.03313575
0.03620149
0.03949847
0.04303878
0.04683461
0.05089827
0.05524205
0.05987825
0.06481906
0.07007652
0.07566245
0.08158841
0.08786556
0.09450465
0.10151594
0.10890908
0.11669307
0.12487617
0.13346586
0.14246870
0.15189031
0.16173528
0.17200712
0.18270817
0.19383958
0.20540122
0.21739167
0.22980817
0.24264655
0.25590128
0.26956538
0.28363047
0.29808673
0.31292293
0.32812643
0.34368322
0.35957796
0.37579401
0.39231347
0.40911726
0.42618517
0.44349595
0.46102737
0.47875629
0.49665880
0.51471027
0.53288547
0.55115868
0.56950378
0.58789442
0.60630405
0.62470615
0.64307427
0.66138222
0.67960416
0.69771476
0.71568929
0.73350373
0.75113488
0.76856040
0.78575883
0.80270953
0.81939254
0.83578829
0.85187707
0.86763810
0.88304811
0.89807887
0.91269342
0.92684004
0.94044334
0.95339142
0.96551980
0.97659559
0.98631363
0.99432999
1.00037047
1.00444305
1.00703607
1.00901925
1.01124415
1.01376750
1.01628623
1.01860683
1.02073102
1.02272698
1.02463588
1.02643016
1.02799209
1.02911175
1.02952064
1.02902964
1.02769554
1.02567691
1.02315155
1.02027915
1.01723814
1.01428294
1.01171658
1.00974501
1.00840289
1.00760200
1.00716921
1.00687510
1.00648316
1.00584557
1.00493920
1.00383373
1.00262497
1.00139841
1.00022777
0.99916594
0.99825274
0.99750078
0.99690475
0.99643495
0.99606168
0.99575572
0.99549421
0.99526421
0.99505627
0.99486248
0.99468331
0.99451781
0.99436447
0.99421983
0.99408691
0.99396428
0.99385435
0.99376037
0.99367958
0.99361459
0.99356978
0.99354925
0.99355160
0.99358372
0.99364825
0.99375072
0.99389310
0.99408090
0.99432031
0.99460795
0.99495110
0.99534963
0.99580540
0.99631352
0.99687292
0.99748090
0.99813290
0.99882386
0.99954820
1.00030552
1.00109712
1.00192512
1.00279268
1.00370478
1.00467192
1.00570955
1.00682047
1.00802401
1.00933746
1.01076834
1.01232741
1.01400814
1.01579076
1.01763078
1.01942806
1.02100193
1.02206860
1.02222990
1.02100574
1.01768293
1.01052353
0.99420614
0.95114451
0.83284199
0.60693599
0.40262562
0.25917988
0.16595758
0.10658197
0.06879893
0.04463701
0.02908991
0.01902816
0.01248428
0.00821101
0.00541123
0.00357192
0.00236095
0.00156224
0.00103468
0.00068578
0.00045482
0.00030180
0.00020035
0.00013305
0.00008839
0.00005873
0.00003904
0.00002595
0.00001725
0.00001147
0.00000763
0.00000508
0.00000338
0.00000225
0.00000150
0.00000100
0.00000066
0.00000044
0.00000029
0.00000020
0.00000013
0.00000009
0.00000006
0.00000004
0.00000003
0.00000002
0.00000001
0.00000001
0.00000001
0.00000000
0.00000000
0.00000000
0.00000000
0.00000000
0.00000000
0.00000000
0.00000000
0.00000000
0.00000000
0.00000000
0.00000000
0.00000000
0.00000000
0.00000000
0.00000000
0.00000000
0.00000000
0.00000000
0.00000000
0.00000000
0.00000000
0.00000000
0.00000000
0.00000000
0.00000000
0.00000000
0.00000000
0.00000000
0.00000000
0.00000000
0.00000000
0.00000000
0.00000000
0.00000000
0.00000000
0.00000000
0.00000000
0.00000000
0.00000000
0.00000000
0.00000000
0.00000000
0.00000000
0.00000000
0.00000000
0.00000000
0.00000000
0.00000000
0.00000000
0.00000000
0.00000000
0.00000000
0.00000000
0.00000000
0.00000000
0.00000000
0.00000000
0.00000000
0.00000000
0.00000000
0.00000000
0.00000000
0.00000000
0.00000000
0.00000000
0.00000000
0.00000000
0.00000000
0.00000000
0.00000000
0.00000000
0.00000000
0.00000000
0.00000000
0.00000000
0.00000000
0.00000000
0.00000000
0.00000000
0.00000000
0.00000000
0.00000000
0.00000000
0.00000000
0.00000000
0.00000000
0.00000000
0.00000000
0.00000000
0.00000000
0.00000000
0.00000000
0.00000000
0.00000000
0.00000000
0.00000000
0.00000000
0.00000000
0.00000000
0.00000000
0.00000000
0.00000000
0.00000000
0.00000000
0.00000000
0.00000000
0.00000000
0.00000000
0.00000000
0.00000000
0.00000000
0.00000000
0.00000000
0.00000000
0.00000000
0.00000000
0.00000000
0.00000000
0.00000000
0.00000000
0.00000000
0.00000000
0.00000000
0.00000000
0.00010952
0.00011219
0.00011757
0.00012577
0.00013693
0.00015126
0.00016902
0.00019052
0.00021615
0.00024633
0.00028160
0.00032254
0.00036982
0.00042420
0.00048655
0.00055781
0.00063907
0.00073151
0.00083647
0.00095540
0.00108994
0.00124187
0.00141316
0.00160594
0.00182259
0.00206566
0.00233798
0.00264257
0.00298275
0.00336210
0.00378449
0.00425409
0.00477538
0.00535318
0.00599266
0.00669933
0.00747906
0.00833813
0.00928318
0.01032123
0.01145974
0.01270652
0.01406984
0.01555831
0.01718100
0.01894731
0.02086708
0.02295047
0.02520801
0.02765058
0.03028934
0.03313573
0.03620146
0.03949844
0.04303873
0.04683456
0.05089820
0.05524197
0.05987815
0.06481894
0.07007637
0.07566229
0.08158821
0.08786533
0.09450439
0.10151564
0.10890873
0.11669267
0.12487573
0.13346536
0.14246814
0.15188969
0.16173460
0.17200637
0.18270736
0.19383872
0.20540031
0.21739072
0.22980718
0.24264556
0.25590029
0.26956443
0.28362959
0.29808596
0.31292230
0.32812600
0.34368304
0.35957809
0.37579452
0.39231441
0.40911870
0.42618718
0.44349856
0.46103061
0.47876017
0.49666329
0.51471530
0.53289091
0.55116432
0.56950934
0.58789947
0.60630807
0.62470844
0.64307397
0.66137824
0.67959519
0.69769922
0.71566531
0.73346912
0.75108708
0.76849646
0.78567532
0.80260244
0.81925711
0.83561874
0.85166612
0.86737634
0.88272293
0.89767316
0.91218390
0.92619575
0.93962507
0.95235427
0.96422195
0.97501764
0.98449074
0.99238832
0.99853558
1.00295251
1.00594642
1.00805994
1.00984782
1.01155948
1.01322723
1.01485075
1.01644262
1.01799125
1.01943900
1.02071637
1.02173660
1.02241351
1.02262383
1.02228104
1.02139114
1.02002618
1.01828728
1.01628912
1.01417194
1.01211116
1.01028914
1.00883107
1.00776702
1.00704632
1.00655981
1.00616752
1.00573196
1.00516202
1.00443035
1.00356316
1.00261131
1.00163075
1.00067381
0.99978260
0.99898716
0.99830039
0.99772161
0.99723701
0.99682898
0.99647955
0.99617259
0.99589626
0.99564298
0.99540710
0.99518589
0.99497799
0.99478151
0.99459571
0.99442114
0.99425816
0.99410881
0.99397471
0.99385669
0.99375695
0.99367845
0.99362417
0.99359722
0.99360172
0.99364290
0.99372548
0.99385383
0.99403339
0.99426926
0.99456536
0.99492650
0.99535567
0.99585492
0.99642374
0.99705970
0.99775849
0.99851395
0.99931898
1.00016824
1.00105860
1.00198899
1.00296219
1.00398234
1.00505697
1.00619649
1.00741378
1.00872100
1.01013151
1.01165637
1.01329969
1.01505471
1.01689542
1.01876889
1.02058487
1.02220157
1.02341492
1.02395608
1.02349215
1.02161102
1.01766225
1.01019642
0.99514707
0.96028994
0.87006165
0.64662228
0.42518473
0.26972810
0.17054045
0.10847061
0.06952173
0.04487305
0.02913502
0.01900764
0.01244850
0.00817808
0.00538602
0.00355432
0.00234935
0.00155492
0.00103021
0.00068315
0.00045333
0.00030098
0.00019993
0.00013285
0.00008830
0.00005871
0.00003904
0.00002596
0.00001727
0.00001149
0.00000764
0.00000509
0.00000338
0.00000225
0.00000150
0.00000100
0.00000066
0.00000044
0.00000029
0.00000020
0.00000013
0.00000009
0.00000006
0.00000004
0.00000003
0.00000002
0.00000001
0.00000001
0.00000001
0.00000000
0.00000000
0.00000000
0.00000000
0.00000000
0.00000000
0.00000000
0.00000000
0.00000000
0.00000000
0.00000000
0.00000000
0.00000000
0.00000000
0.00000000
0.00000000
0.00000000
0.00000000
0.00000000
0.00000000
0.00000000
0.00000000
0.00000000
0.00000000
0.00000000
0.00000000
0.00000000
0.00000000
0.00000000
0.00000000
0.00000000
0.00000000
0.00000000
0.00000000
0.00000000
0.00000000
0.00000000
0.00000000
0.00000000
0.00000000
0.00000000
0.00000000
0.00000000
0.00000000
0.00000000
0.00000000
0.00000000
0.00000000