# vtk DataFile Version 3.0
Concentration output
ASCII
DATASET STRUCTURED_POINTS
DIMENSIONS 398 98 1
ORIGIN 0 0 0
SPACING 0.03 0.03 1.0
POINT_DATA 39004
SCALARS Variable float 1
LOOKUP_TABLE default
0.00293633
0.00296285
0.00301604
0.00309618
0.00320373
0.00333928
0.00350356
0.00369746
0.00392202
0.00417844
0.00446805
0.00479235
0.00515300
0.00555180
0.00599072
0.00647187
0.00699754
0.00757016
0.00819235
0.00886685
0.00959661
0.01038469
0.01123435
0.01214900
0.01313220
0.01418769
0.01531935
0.01653122
0.01782749
0.01921250
0.02069074
0.02226683
0.02394555
0.02573178
0.02763053
0.02964693
0.03178623
0.03405376
0.03645494
0.03899528
0.04168033
0.04451573
0.04750713
0.05066024
0.05398074
0.05747434
0.06114672
0.06500352
0.06905034
0.07329269
0.07773601
0.08238560
0.08724665
0.09232421
0.09762313
0.10314810
0.10890357
0.11489378
0.12112270
0.12759403
0.13431118
0.14127722
0.14849492
0.15596668
0.16369452
0.17168007
0.17992456
0.18842880
0.19719316
0.20621755
0.21550142
0.22504375
0.23484304
0.24489731
0.25520406
0.26576031
0.27656258
0.28760689
0.29888876
0.31040322
0.32214481
0.33410762
0.34628524
0.35867086
0.37125719
0.38403656
0.39700091
0.41014181
0.42345050
0.43691791
0.45053470
0.46429132
0.47817799
0.49218479
0.50630169
0.52051859
0.53482533
0.54921177
0.56366783
0.57818344
0.59274866
0.60735357
0.62198837
0.63664323
0.65130832
0.66597363
0.68062894
0.69526359
0.70986629
0.72442495
0.73892634
0.75335587
0.76769725
0.78193222
0.79604019
0.80999803
0.82377979
0.83735651
0.85069613
0.86376345
0.87652018
0.88892512
0.90093448
0.91250231
0.92358111
0.93412268
0.94407923
0.95340484
0.96205733
0.97000065
0.97720769
0.98366339
0.98936780
0.99433858
0.99861222
1.00224358
1.00530347
1.00787480
1.01004816
1.01191805
1.01358037
1.01513149
1.01666884
1.01829322
1.02011349
1.02225291
1.02484620
1.02801900
1.03159720
1.03332530
1.03329909
1.03285749
1.03246888
1.03226400
1.03135281
1.03079693
1.03091958
1.03194131
1.03397864
1.03666649
1.03701110
1.03151449
1.02441242
1.01761024
1.01239577
1.00868612
1.00593890
1.00377028
1.00195735
1.00040297
0.99908911
0.99802473
0.99718449
0.99650214
0.99594629
0.99548199
0.99525876
0.99501448
0.99486761
0.99474998
0.99466337
0.99468500
0.99473383
0.99474839
0.99480529
0.99482070
0.99485518
0.99496196
0.99509633
0.99516674
0.99529123
0.99545170
0.99563537
0.99585192
0.99606564
0.99624365
0.99643205
0.99670002
0.99695875
0.99728535
0.99756802
0.99785781
0.99818600
0.99851108
0.99884864
0.99921682
0.99954238
0.99990388
1.00021681
1.00054715
1.00087571
1.00112993
1.00143197
1.00169765
1.00194173
1.00221339
1.00234359
1.00258039
1.00276237
1.00286351
1.00299458
1.00311328
1.00318556
1.00329062
1.00336275
1.00345709
1.00349455
1.00352257
1.00355885
1.00358405
1.00355686
1.00358960
1.00358410
1.00361474
1.00355884
1.00353596
1.00347110
1.00344872
1.00336672
1.00336425
1.00330930
1.00328490
1.00323217
1.00314596
1.00306743
1.00306609
1.00294924
1.00285898
1.00282765
1.00274103
1.00268722
1.00260709
1.00253744
1.00247333
1.00243302
1.00239135
1.00237100
1.00230464
1.00225840
1.00222194
1.00220863
1.00220873
1.00223201
1.00225217
1.00226068
1.00223842
1.00233705
1.00237573
1.00237605
1.00238104
1.00240580
1.00244547
1.00249362
1.00254238
1.00257426
1.00263721
1.00270589
1.00280626
1.00282756
1.00288258
1.00293848
1.00302590
1.00307344
1.00314316
1.00324926
1.00330609
1.00341506
1.00356151
1.00365341
1.00374125
1.00380602
1.00392078
1.00401225
1.00408254
1.00412978
1.00419205
1.00426083
1.00422555
1.00418734
1.00408616
1.00399509
1.00376241
1.00335464
1.00272439
1.00182129
1.00048323
0.99840387
0.99524214
0.99035720
0.98301946
0.97202289
0.95592992
0.93216336
0.89529752
0.83624581
0.75028207
0.64201847
0.52416956
0.41067390
0.31097136
0.22906340
0.16503649
0.11683345
0.08157064
0.05633629
0.03858147
0.02625057
0.01777157
0.01198550
0.00805997
0.00540844
0.00362339
0.00242466
0.00162115
0.00108328
0.00072358
0.00048319
0.00032262
0.00021539
0.00014379
0.00009600
0.00006409
0.00004279
0.00002857
0.00001907
0.00001273
0.00000850
0.00000568
0.00000379
0.00000253
0.00000169
0.00000113
0.00000075
0.00000050
0.00000033
0.00000022
0.00000015
0.00000010
0.00000007
0.00000004
0.00000003
0.00000002
0.00000001
0.00000001
0.00000001
0.00000000
0.00000000
0.00000000
0.00000000
0.00000000
0.00000000
0.00000000
0.00000000
0.00000000
0.00000000
0.00000000
0.00000000
0.00000000
0.00000000
0.00000000
0.00000000
0.00000000
0.00000000
0.00000000
0.00000000
0.00000000
0.00000000
0.00000000
0.00000000
0.00000000
0.00000000
0.00000000
0.00000000
0.00000000
0.00000000
0.00000000
0.00000000
0.00000000
0.00293633
0.00296285
0.00301604
0.00309618
0.00320373
0.00333928
0.00350356
0.00369746
0.00392202
0.00417844
0.00446805
0.00479235
0.00515300
0.00555180
0.00599072
0.00647187
0.00699754
0.00757016
0.00819235
0.00886686
0.00959661
0.01038469
0.01123435
0.01214900
0.01313220
0.01418769
0.01531935
0.01653122
0.01782749
0.01921250
0.02069074
0.02226683
0.02394555
0.02573177
0.02763053
0.02964693
0.03178623
0.03405376
0.03645494
0.03899527
0.04168033
0.04451573
0.04750713
0.05066023
0.05398073
0.05747433
0.06114671
0.06500352
0.06905033
0.07329268
0.07773600
0.08238558
0.08724664
0.09232419
0.09762312
0.10314808
0.10890356
0.11489376
0.12112268
0.12759401
0.13431115
0.14127719
0.14849489
0.15596665
0.16369448
0.17168003
0.17992452
0.18842876
0.19719311
0.20621749
0.21550135
0.22504368
0.23484297
0.24489723
0.25520397
0.26576021
0.27656247
0.28760676
0.29888861
0.31040305
0.32214462
0.33410739
0.34628499
0.35867056
0.37125684
0.38403615
0.39700042
0.41014123
0.42344981
0.43691709
0.45053374
0.46429017
0.47817662
0.49218316
0.50629976
0.52051628
0.53482258
0.54920852
0.56366397
0.57817888
0.59274326
0.60734722
0.62198091
0.63663451
0.65129816
0.66596187
0.68061539
0.69524807
0.70984865
0.72440504
0.73890410
0.75333127
0.76767038
0.78190328
0.79600955
0.80996626
0.82374772
0.83732525
0.85066716
0.86373861
0.87650174
0.88891577
0.90093729
0.91252065
0.92361846
0.93418235
0.94416395
0.95351618
0.96219510
0.97016219
0.97738737
0.98385236
0.98955436
0.99450915
0.99875296
1.00234218
1.00535062
1.00786473
1.00997820
1.01178736
1.01338854
1.01487705
1.01634748
1.01789495
1.01961760
1.02161978
1.02401281
1.02691306
1.03021844
1.03266333
1.03313887
1.03259338
1.03202420
1.03161114
1.03047751
1.02986954
1.02986820
1.03059132
1.03202135
1.03388922
1.03462263
1.03036862
1.02356799
1.01625954
1.01116282
1.00786530
1.00539270
1.00348839
1.00187381
1.00023196
0.99915312
0.99799700
0.99730402
0.99659922
0.99593705
0.99562524
0.99536798
0.99511635
0.99490592
0.99485965
0.99468637
0.99482047
0.99496478
0.99481851
0.99488332
0.99493452
0.99494173
0.99501470
0.99519599
0.99526963
0.99532156
0.99546369
0.99567872
0.99585302
0.99613835
0.99633385
0.99650052
0.99667691
0.99692589
0.99733207
0.99759514
0.99791261
0.99817400
0.99864030
0.99899769
0.99913963
0.99959721
0.99989478
1.00030046
1.00052081
1.00082032
1.00110600
1.00153846
1.00165228
1.00196063
1.00228357
1.00246802
1.00273234
1.00275609
1.00292591
1.00306033
1.00319145
1.00323117
1.00338544
1.00333119
1.00343611
1.00352493
1.00347724
1.00350495
1.00357894
1.00356611
1.00365234
1.00359786
1.00374809
1.00364618
1.00360707
1.00356165
1.00340515
1.00338468
1.00329728
1.00342638
1.00324568
1.00324420
1.00312508
1.00315276
1.00303046
1.00300006
1.00284777
1.00286119
1.00267485
1.00275454
1.00266298
1.00262355
1.00249481
1.00252636
1.00239291
1.00235468
1.00230293
1.00226305
1.00213088
1.00224475
1.00215450
1.00206767
1.00222116
1.00219331
1.00217266
1.00224589
1.00233217
1.00238562
1.00243234
1.00245707
1.00242380
1.00248027
1.00255916
1.00251964
1.00263949
1.00256944
1.00277718
1.00274422
1.00288136
1.00297016
1.00298942
1.00301290
1.00315764
1.00325620
1.00334315
1.00347074
1.00357859
1.00376344
1.00382395
1.00380779
1.00395545
1.00412620
1.00420038
1.00428909
1.00439227
1.00439603
1.00444199
1.00441213
1.00449285
1.00438432
1.00427881
1.00413932
1.00389707
1.00322379
1.00255388
1.00141914
0.99980116
0.99721164
0.99297411
0.98643888
0.97630881
0.95970095
0.93129566
0.88151426
0.80131275
0.69143061
0.56484523
0.44009467
0.33044480
0.24117661
0.17223693
0.12097016
0.08388693
0.05760880
0.03927110
0.02662099
0.01796961
0.01209134
0.00811676
0.00543918
0.00364026
0.00243409
0.00162654
0.00108645
0.00072549
0.00048438
0.00032337
0.00021588
0.00014412
0.00009621
0.00006423
0.00004288
0.00002863
0.00001912
0.00001276
0.00000852
0.00000569
0.00000380
0.00000254
0.00000169
0.00000113
0.00000075
0.00000050
0.00000034
0.00000022
0.00000015
0.00000010
0.00000007
0.00000004
0.00000003
0.00000002
0.00000001
0.00000001
0.00000001
0.00000000
0.00000000
0.00000000
0.00000000
0.00000000
0.00000000
0.00000000
0.00000000
0.00000000
0.00000000
0.00000000
0.00000000
0.00000000
0.00000000
0.00000000
0.00000000
0.00000000
0.00000000
0.00000000
0.00000000
0.00000000
0.00000000
0.00000000
0.00000000
0.00000000
0.00000000
0.00000000
0.00000000
0.00000000
0.00000000
0.00000000
0.00000000
0.00000000
0.00293633
0.00296285
0.00301604
0.00309619
0.00320374
0.00333928
0.00350356
0.00369746
0.00392202
0.00417844
0.00446805
0.00479235
0.00515300
0.00555180
0.00599072
0.00647187
0.00699754
0.00757016
0.00819235
0.00886686
0.00959661
0.01038469
0.01123435
0.01214900
0.01313221
0.01418769
0.01531935
0.01653122
0.01782749
0.01921250
0.02069074
0.02226683
0.02394555
0.02573177
0.02763053
0.02964693
0.03178623
0.03405376
0.03645494
0.03899527
0.04168032
0.04451572
0.04750712
0.05066022
0.05398072
0.05747432
0.06114670
0.06500350
0.06905032
0.07329267
0.07773598
0.08238556
0.08724661
0.09232417
0.09762309
0.10314805
0.10890352
0.11489372
0.12112264
0.12759396
0.13431110
0.14127714
0.14849483
0.15596658
0.16369441
0.17167995
0.17992443
0.18842866
0.19719301
0.20621738
0.21550123
0.22504355
0.23484283
0.24489707
0.25520379
0.26576001
0.27656225
0.28760651
0.29888832
0.31040272
0.32214424
0.33410696
0.34628448
0.35866996
0.37125614
0.38403533
0.39699946
0.41014009
0.42344846
0.43691548
0.45053183
0.46428790
0.47817391
0.49217994
0.50629592
0.52051172
0.53481716
0.54920208
0.56365633
0.57816983
0.59273258
0.60733465
0.62196615
0.63661724
0.65127805
0.66593856
0.68058852
0.69521729
0.70981365
0.72436557
0.73885996
0.75328245
0.76761703
0.78184579
0.79594865
0.80990309
0.82368389
0.83726300
0.85060940
0.86368906
0.87646495
0.88889719
0.90094321
0.91255800
0.92369454
0.93430422
0.94433763
0.95374552
0.96248039
0.97049869
0.97776398
0.98425102
0.98995058
0.99487410
0.99905699
1.00255902
1.00546080
1.00785698
1.00984818
1.01153473
1.01301387
1.01437921
1.01572083
1.01712513
1.01867439
1.02044600
1.02250807
1.02491228
1.02761585
1.03026701
1.03161455
1.03160538
1.03081160
1.02976437
1.02871663
1.02812373
1.02800971
1.02834469
1.02900953
1.02967461
1.02950830
1.02664509
1.02129053
1.01382569
1.00940099
1.00699001
1.00519089
1.00344760
1.00194422
1.00061656
0.99936727
0.99837247
0.99754544
0.99702508
0.99640869
0.99597529
0.99570145
0.99559112
0.99529034
0.99518488
0.99511906
0.99505094
0.99499316
0.99520069
0.99514425
0.99515616
0.99517065
0.99534087
0.99542336
0.99552598
0.99564064
0.99574309
0.99590380
0.99615983
0.99628629
0.99644391
0.99659371
0.99696994
0.99724209
0.99754136
0.99781044
0.99803314
0.99832581
0.99865091
0.99901298
0.99931047
0.99972883
0.99996834
1.00033109
1.00054626
1.00097509
1.00124792
1.00148319
1.00179940
1.00208594
1.00223696
1.00255244
1.00272892
1.00287408
1.00306994
1.00308129
1.00322257
1.00327023
1.00339266
1.00352190
1.00357010
1.00351420
1.00357457
1.00376213
1.00376095
1.00384331
1.00372890
1.00378676
1.00380483
1.00373718
1.00377572
1.00380206
1.00371006
1.00368590
1.00348719
1.00353437
1.00341438
1.00348831
1.00327308
1.00334109
1.00315696
1.00307234
1.00300257
1.00299745
1.00274722
1.00268509
1.00257204
1.00257721
1.00249673
1.00239280
1.00226207
1.00228606
1.00224167
1.00212951
1.00199990
1.00205361
1.00203276
1.00198625
1.00204038
1.00205420
1.00215362
1.00208579
1.00213383
1.00218978
1.00225888
1.00224096
1.00238965
1.00240171
1.00237536
1.00252099
1.00253264
1.00253107
1.00267006
1.00277042
1.00290733
1.00296886
1.00299649
1.00312950
1.00313816
1.00328603
1.00347119
1.00355215
1.00380292
1.00391314
1.00390793
1.00402621
1.00413758
1.00452762
1.00461640
1.00469945
1.00492990
1.00495254
1.00521047
1.00534342
1.00548061
1.00561189
1.00590370
1.00599819
1.00624141
1.00635461
1.00672068
1.00715469
1.00787001
1.00875613
1.00971692
1.01030096
1.00885294
1.00301534
0.98706811
0.95372163
0.88999424
0.78500409
0.64624647
0.49984814
0.36973022
0.26527954
0.18634907
0.12896365
0.08830828
0.06001341
0.04056403
0.02731146
0.01833739
0.01228755
0.00822208
0.00549632
0.00367176
0.00245182
0.00163678
0.00109252
0.00072920
0.00048670
0.00032486
0.00021685
0.00014476
0.00009664
0.00006452
0.00004308
0.00002877
0.00001921
0.00001282
0.00000856
0.00000572
0.00000382
0.00000255
0.00000170
0.00000114
0.00000076
0.00000051
0.00000034
0.00000023
0.00000015
0.00000010
0.00000007
0.00000004
0.00000003
0.00000002
0.00000001
0.00000001
0.00000001
0.00000000
0.00000000
0.00000000
0.00000000
0.00000000
0.00000000
0.00000000
0.00000000
0.00000000
0.00000000
0.00000000
0.00000000
0.00000000
0.00000000
0.00000000
0.00000000
0.00000000
0.00000000
0.00000000
0.00000000
0.00000000
0.00000000
0.00000000
0.00000000
0.00000000
0.00000000
0.00000000
0.00000000
0.00000000
0.00000000
0.00000000
0.00000000
0.00000000
0.00293634
0.00296285
0.00301604
0.00309619
0.00320374
0.00333928
0.00350356
0.00369746
0.00392202
0.00417844
0.00446805
0.00479236
0.00515300
0.00555180
0.00599072
0.00647187
0.00699754
0.00757017
0.00819235
0.00886686
0.00959661
0.01038469
0.01123435
0.01214900
0.01313221
0.01418770
0.01531935
0.01653122
0.01782749
0.01921250
0.02069074
0.02226683
0.02394555
0.02573177
0.02763052
0.02964693
0.03178623
0.03405375
0.03645493
0.03899526
0.04168032
0.04451571
0.04750711
0.05066021
0.05398071
0.05747431
0.06114668
0.06500348
0.06905029
0.07329264
0.07773595
0.08238553
0.08724658
0.09232412
0.09762304
0.10314800
0.10890347
0.11489366
0.12112257
0.12759389
0.13431102
0.14127705
0.14849474
0.15596648
0.16369430
0.17167983
0.17992431
0.18842853
0.19719286
0.20621722
0.21550106
0.22504336
0.23484261
0.24489683
0.25520353
0.26575972
0.27656192
0.28760614
0.29888790
0.31040224
0.32214369
0.33410632
0.34628373
0.35866909
0.37125512
0.38403413
0.39699804
0.41013841
0.42344647
0.43691312
0.45052902
0.46428455
0.47816994
0.49217520
0.50629028
0.52050500
0.53480917
0.54919258
0.56364507
0.57815650
0.59271683
0.60731609
0.62194436
0.63659175
0.65124835
0.66590413
0.68054883
0.69517181
0.70976191
0.72430717
0.73879465
0.75321016
0.76753796
0.78176053
0.79585825
0.80980919
0.82358890
0.83717021
0.85052316
0.86361493
0.87640984
0.88886941
0.90095247
0.91261524
0.92381146
0.93449256
0.94460791
0.95410529
0.96293197
0.97103652
0.97837215
0.98490166
0.99060421
0.99548286
0.99957095
1.00293409
1.00566547
1.00787518
1.00967645
1.01117605
1.01247233
1.01365678
1.01481487
1.01602437
1.01735219
1.01885045
1.02055065
1.02245100
1.02448163
1.02646084
1.02785086
1.02819345
1.02767999
1.02693628
1.02626202
1.02582719
1.02565184
1.02567780
1.02576177
1.02562196
1.02474735
1.02239933
1.01839905
1.01332375
1.00968961
1.00730751
1.00547547
1.00384898
1.00240936
1.00110512
0.99997149
0.99902656
0.99820857
0.99760439
0.99704472
0.99660356
0.99630075
0.99606305
0.99589170
0.99575163
0.99564487
0.99556996
0.99555048
0.99558341
0.99559272
0.99559753
0.99565080
0.99569448
0.99579279
0.99588701
0.99601142
0.99614456
0.99628526
0.99646052
0.99662975
0.99681923
0.99700880
0.99723572
0.99746585
0.99773491
0.99796949
0.99824869
0.99853272
0.99884835
0.99913795
0.99946553
0.99979464
1.00012158
1.00047148
1.00073503
1.00101522
1.00136341
1.00160714
1.00189294
1.00213701
1.00236461
1.00253674
1.00272970
1.00293466
1.00310087
1.00319790
1.00332168
1.00346636
1.00358482
1.00365299
1.00375902
1.00383601
1.00388565
1.00392920
1.00400041
1.00405618
1.00409235
1.00409899
1.00408403
1.00407853
1.00408250
1.00407550
1.00403540
1.00399003
1.00389599
1.00382914
1.00376431
1.00371143
1.00362682
1.00354754
1.00340007
1.00331192
1.00315474
1.00304400
1.00290899
1.00280137
1.00266575
1.00255085
1.00242520
1.00236563
1.00226873
1.00218012
1.00211277
1.00206335
1.00197683
1.00192337
1.00188591
1.00187055
1.00186105
1.00187198
1.00186960
1.00193973
1.00195318
1.00198256
1.00202492
1.00205911
1.00208447
1.00214272
1.00221238
1.00226186
1.00237392
1.00242195
1.00250799
1.00260278
1.00272366
1.00283148
1.00294422
1.00305601
1.00320484
1.00336933
1.00353557
1.00366669
1.00387491
1.00406964
1.00423233
1.00445474
1.00469239
1.00491912
1.00516355
1.00541794
1.00567776
1.00595408
1.00627949
1.00655224
1.00692463
1.00727922
1.00777604
1.00825927
1.00892400
1.00962913
1.01050919
1.01167444
1.01313675
1.01495423
1.01703364
1.01911018
1.02070435
1.02084364
1.01753161
1.00537876
0.97115230
0.89523048
0.76019448
0.58905345
0.42850923
0.30066404
0.20657328
0.14015504
0.09437442
0.06325861
0.04228701
0.02822342
0.01882058
0.01254490
0.00836048
0.00557186
0.00371381
0.00247581
0.00165085
0.00110102
0.00073448
0.00049006
0.00032705
0.00021830
0.00014573
0.00009729
0.00006496
0.00004338
0.00002897
0.00001934
0.00001292
0.00000863
0.00000576
0.00000385
0.00000257
0.00000171
0.00000114
0.00000076
0.00000051
0.00000034
0.00000023
0.00000015
0.00000010
0.00000007
0.00000004
0.00000003
0.00000002
0.00000001
0.00000001
0.00000001
0.00000000
0.00000000
0.00000000
0.00000000
0.00000000
0.00000000
0.00000000
0.00000000
0.00000000
0.00000000
0.00000000
0.00000000
0.00000000
0.00000000
0.00000000
0.00000000
0.00000000
0.00000000
0.00000000
0.00000000
0.00000000
0.00000000
0.00000000
0.00000000
0.00000000
0.00000000
0.00000000
0.00000000
0.00000000
0.00000000
0.00000000
0.00000000
0.00000000
0.00293634
0.00296286
0.00301604
0.00309619
0.00320374
0.00333928
0.00350356
0.00369746
0.00392202
0.00417844
0.00446805
0.00479236
0.00515301
0.00555181
0.00599072
0.00647187
0.00699754
0.00757017
0.00819235
0.00886686
0.00959661
0.01038469
0.01123435
0.01214900
0.01313221
0.01418770
0.01531935
0.01653122
0.01782749
0.01921250
0.02069074
0.02226683
0.02394555
0.02573177
0.02763052
0.02964693
0.03178622
0.03405375
0.03645493
0.03899525
0.04168031
0.04451570
0.04750710
0.05066020
0.05398069
0.05747428
0.06114666
0.06500345
0.06905026
0.07329261
0.07773591
0.08238548
0.08724653
0.09232407
0.09762298
0.10314794
0.10890339
0.11489359
0.12112249
0.12759380
0.13431092
0.14127694
0.14849462
0.15596635
0.16369416
0.17167968
0.17992414
0.18842835
0.19719267
0.20621701
0.21550083
0.22504311
0.23484234
0.24489653
0.25520319
0.26575934
0.27656150
0.28760566
0.29888736
0.31040162
0.32214297
0.33410549
0.34628277
0.35866797
0.37125380
0.38403258
0.39699621
0.41013625
0.42344390
0.43691007
0.45052538
0.46428022
0.47816477
0.49216905
0.50628295
0.52049627
0.53479878
0.54918024
0.56363041
0.57813914
0.59269632
0.60729192
0.62191596
0.63655852
0.65120962
0.66585921
0.68049702
0.69511242
0.70969430
0.72423082
0.73870919
0.75311548
0.76743430
0.78164861
0.79573940
0.80968553
0.82346354
0.83704744
0.85040870
0.86351615
0.87633601
0.88883185
0.90096460
0.91269251
0.92397088
0.93475186
0.94498395
0.95461173
0.96357582
0.97181399
0.97926408
0.98586990
0.99159088
0.99641457
1.00036915
1.00352945
1.00601101
1.00795153
1.00948673
1.01073149
1.01178365
1.01273160
1.01365765
1.01463397
1.01571585
1.01693614
1.01830132
1.01978355
1.02130537
1.02271599
1.02378326
1.02423781
1.02416856
1.02386800
1.02352613
1.02325171
1.02306185
1.02290312
1.02265380
1.02211147
1.02099129
1.01899101
1.01608467
1.01266979
1.00980677
1.00757110
1.00574761
1.00416958
1.00279363
1.00156795
1.00049880
0.99959564
0.99882355
0.99819068
0.99766061
0.99722783
0.99689473
0.99663652
0.99643136
0.99628485
0.99617799
0.99609653
0.99605174
0.99604117
0.99603709
0.99605568
0.99609876
0.99615623
0.99623161
0.99632351
0.99642155
0.99653858
0.99668099
0.99682890
0.99698868
0.99716101
0.99734371
0.99753894
0.99774769
0.99797725
0.99822556
0.99847461
0.99874706
0.99902172
0.99931514
0.99961503
0.99992867
1.00024345
1.00056457
1.00086216
1.00115240
1.00145654
1.00172130
1.00198437
1.00222475
1.00244896
1.00265168
1.00284425
1.00302413
1.00319481
1.00333321
1.00346792
1.00359731
1.00372819
1.00383340
1.00393289
1.00402824
1.00411975
1.00418856
1.00426124
1.00432765
1.00438237
1.00442143
1.00444775
1.00446434
1.00446265
1.00445537
1.00441959
1.00437519
1.00430434
1.00422115
1.00413455
1.00403909
1.00393192
1.00380595
1.00366664
1.00351644
1.00335349
1.00319035
1.00302826
1.00285647
1.00269268
1.00252918
1.00237527
1.00225339
1.00213028
1.00202226
1.00192917
1.00184552
1.00176659
1.00171522
1.00167435
1.00165095
1.00162845
1.00161726
1.00161952
1.00163996
1.00167121
1.00170408
1.00174153
1.00178219
1.00182175
1.00188891
1.00196621
1.00203709
1.00213112
1.00222189
1.00232179
1.00243001
1.00256069
1.00270661
1.00285784
1.00300886
1.00317711
1.00336803
1.00355568
1.00378345
1.00401964
1.00425833
1.00451500
1.00479452
1.00507998
1.00537934
1.00571060
1.00607030
1.00644433
1.00684986
1.00728948
1.00776574
1.00831515
1.00890750
1.00958128
1.01033996
1.01122553
1.01224848
1.01342398
1.01481899
1.01643691
1.01825305
1.02018123
1.02208652
1.02373100
1.02485994
1.02473934
1.02108541
1.00737086
0.96826512
0.87331800
0.69775867
0.50314527
0.34493710
0.23112068
0.15331701
0.10131401
0.06688962
0.04418347
0.02921654
0.01934414
0.01282396
0.00851159
0.00565541
0.00376120
0.00250348
0.00166751
0.00111135
0.00074106
0.00049436
0.00032989
0.00022020
0.00014702
0.00009817
0.00006556
0.00004378
0.00002924
0.00001953
0.00001304
0.00000871
0.00000582
0.00000388
0.00000259
0.00000173
0.00000116
0.00000077
0.00000051
0.00000034
0.00000023
0.00000015
0.00000010
0.00000007
0.00000005
0.00000003
0.00000002
0.00000001
0.00000001
0.00000001
0.00000000
0.00000000
0.00000000
0.00000000
0.00000000
0.00000000
0.00000000
0.00000000
0.00000000
0.00000000
0.00000000
0.00000000
0.00000000
0.00000000
0.00000000
0.00000000
0.00000000
0.00000000
0.00000000
0.00000000
0.00000000
0.00000000
0.00000000
0.00000000
0.00000000
0.00000000
0.00000000
0.00000000
0.00000000
0.00000000
0.00000000
0.00000000
0.00000000
0.00293634
0.00296286
0.00301604
0.00309619
0.00320374
0.00333928
0.00350356
0.00369746
0.00392202
0.00417844
0.00446805
0.00479236
0.00515301
0.00555181
0.00599072
0.00647187
0.00699754
0.00757017
0.00819235
0.00886686
0.00959661
0.01038470
0.01123436
0.01214901
0.01313221
0.01418770
0.01531936
0.01653122
0.01782749
0.01921250
0.02069074
0.02226683
0.02394554
0.02573177
0.02763052
0.02964692
0.03178622
0.03405374
0.03645492
0.03899524
0.04168029
0.04451568
0.04750708
0.05066018
0.05398067
0.05747426
0.06114663
0.06500342
0.06905022
0.07329256
0.07773586
0.08238543
0.08724647
0.09232400
0.09762291
0.10314785
0.10890330
0.11489349
0.12112238
0.12759368
0.13431079
0.14127680
0.14849447
0.15596619
0.16369399
0.17167949
0.17992394
0.18842813
0.19719243
0.20621675
0.21550055
0.22504280
0.23484201
0.24489616
0.25520279
0.26575889
0.27656099
0.28760509
0.29888671
0.31040088
0.32214212
0.33410450
0.34628162
0.35866663
0.37125223
0.38403072
0.39699402
0.41013365
0.42344081
0.43690639
0.45052101
0.46427501
0.47815855
0.49216163
0.50627410
0.52048572
0.53478622
0.54916530
0.56361267
0.57811812
0.59267146
0.60726260
0.62188151
0.63651817
0.65116258
0.66580462
0.68043401
0.69504015
0.70961197
0.72413775
0.73860492
0.75299982
0.76730749
0.78151145
0.79559345
0.80953330
0.82330872
0.83689522
0.85026606
0.86339219
0.87624229
0.88878273
0.90097750
0.91278791
0.92417215
0.93508440
0.94547353
0.95528157
0.96444199
0.97287904
0.98050919
0.98724737
0.99302004
0.99778581
1.00156042
1.00443254
1.00655702
1.00812165
1.00930300
1.01022201
1.01096789
1.01162393
1.01227186
1.01298513
1.01381288
1.01477301
1.01585499
1.01701972
1.01819473
1.01927302
1.02012100
1.02063084
1.02082350
1.02081650
1.02071745
1.02058414
1.02042256
1.02018992
1.01979868
1.01912126
1.01800941
1.01635004
1.01417621
1.01173763
1.00946925
1.00751043
1.00582802
1.00435821
1.00306410
1.00192565
1.00093088
1.00007297
0.99934129
0.99872491
0.99821130
0.99778924
0.99744928
0.99717888
0.99696665
0.99680471
0.99668627
0.99660068
0.99654388
0.99651213
0.99650258
0.99651376
0.99654584
0.99659413
0.99665778
0.99673810
0.99683019
0.99693802
0.99706044
0.99719482
0.99734062
0.99749995
0.99766894
0.99784946
0.99804042
0.99824567
0.99846778
0.99870382
0.99895304
0.99921188
0.99948647
0.99977072
1.00006671
1.00037184
1.00067777
1.00097807
1.00127339
1.00156111
1.00183481
1.00209137
1.00233081
1.00255284
1.00275747
1.00294963
1.00312921
1.00329779
1.00345289
1.00359899
1.00373693
1.00387195
1.00399774
1.00411764
1.00423025
1.00433783
1.00444103
1.00453515
1.00462219
1.00470249
1.00476687
1.00481764
1.00485327
1.00486857
1.00486757
1.00484368
1.00479916
1.00473136
1.00464155
1.00453568
1.00441344
1.00427452
1.00411534
1.00394494
1.00375783
1.00355853
1.00334796
1.00313464
1.00291505
1.00269958
1.00249356
1.00230240
1.00212847
1.00196785
1.00182817
1.00170544
1.00160077
1.00151629
1.00145196
1.00140301
1.00136395
1.00133401
1.00131935
1.00131359
1.00132562
1.00135120
1.00138434
1.00142585
1.00147315
1.00152646
1.00159296
1.00167007
1.00175867
1.00185586
1.00196462
1.00208438
1.00221767
1.00236853
1.00253394
1.00271024
1.00289850
1.00310138
1.00332033
1.00355581
1.00381812
1.00409493
1.00439027
1.00470434
1.00504059
1.00539643
1.00577569
1.00618652
1.00662806
1.00710437
1.00761698
1.00817662
1.00879253
1.00947347
1.01022868
1.01106991
1.01201032
1.01306736
1.01425338
1.01557138
1.01702798
1.01859270
1.02020868
1.02178035
1.02316647
1.02420012
1.02469928
1.02427056
1.02195496
1.01510106
0.99591334
0.94138165
0.80125580
0.58311465
0.39235515
0.25654237
0.16643139
0.10799769
0.07029617
0.04593129
0.03012347
0.01982213
0.01308106
0.00865343
0.00573604
0.00380858
0.00253229
0.00168559
0.00112302
0.00074875
0.00049951
0.00033338
0.00022258
0.00014864
0.00009928
0.00006632
0.00004430
0.00002959
0.00001977
0.00001320
0.00000882
0.00000589
0.00000393
0.00000263
0.00000175
0.00000117
0.00000078
0.00000052
0.00000035
0.00000023
0.00000015
0.00000010
0.00000007
0.00000005
0.00000003
0.00000002
0.00000001
0.00000001
0.00000001
0.00000000
0.00000000
0.00000000
0.00000000
0.00000000
0.00000000
0.00000000
0.00000000
0.00000000
0.00000000
0.00000000
0.00000000
0.00000000
0.00000000
0.00000000
0.00000000
0.00000000
0.00000000
0.00000000
0.00000000
0.00000000
0.00000000
0.00000000
0.00000000
0.00000000
0.00000000
0.00000000
0.00000000
0.00000000
0.00000000
0.00000000
0.00000000
0.00000000
0.00293634
0.00296286
0.00301604
0.00309619
0.00320374
0.00333928
0.00350356
0.00369746
0.00392203
0.00417844
0.00446805
0.00479236
0.00515301
0.00555181
0.00599073
0.00647188
0.00699755
0.00757017
0.00819236
0.00886686
0.00959661
0.01038470
0.01123436
0.01214901
0.01313221
0.01418770
0.01531936
0.01653122
0.01782749
0.01921250
0.02069074
0.02226683
0.02394554
0.02573177
0.02763051
0.02964692
0.03178621
0.03405373
0.03645491
0.03899523
0.04168028
0.04451567
0.04750706
0.05066015
0.05398064
0.05747423
0.06114659
0.06500338
0.06905018
0.07329251
0.07773580
0.08238537
0.08724640
0.09232393
0.09762282
0.10314776
0.10890320
0.11489337
0.12112225
0.12759354
0.13431064
0.14127665
0.14849430
0.15596600
0.16369379
0.17167928
0.17992371
0.18842788
0.19719216
0.20621646
0.21550023
0.22504246
0.23484163
0.24489575
0.25520233
0.26575838
0.27656042
0.28760444
0.29888598
0.31040004
0.32214115
0.33410339
0.34628032
0.35866511
0.37125044
0.38402861
0.39699152
0.41013068
0.42343729
0.43690220
0.45051600
0.46426903
0.47815142
0.49215311
0.50626392
0.52047358
0.53477175
0.54914807
0.56359221
0.57809384
0.59264274
0.60722871
0.62184165
0.63647147
0.65110809
0.66574135
0.68036093
0.69495625
0.70951630
0.72402948
0.73848344
0.75286487
0.76715926
0.78135076
0.79542199
0.80935384
0.82312542
0.83671399
0.85009491
0.86324175
0.87612627
0.88871845
0.90098640
0.91289598
0.92441007
0.93548709
0.94607879
0.95612694
0.96555916
0.97428474
0.98219255
0.98915508
0.99504419
0.99976430
1.00329939
1.00576098
1.00736939
1.00841273
1.00914206
1.00966678
1.01004601
1.01035052
1.01066930
1.01109155
1.01166787
1.01239829
1.01325625
1.01419616
1.01515104
1.01603912
1.01678071
1.01732265
1.01766960
1.01786293
1.01794636
1.01794166
1.01784333
1.01761835
1.01720964
1.01654392
1.01555010
1.01419340
1.01252093
1.01067973
1.00887424
1.00721401
1.00572532
1.00439760
1.00321739
1.00217305
1.00125595
1.00045840
0.99977201
0.99918801
0.99869670
0.99828867
0.99795432
0.99768378
0.99746909
0.99730198
0.99717582
0.99708319
0.99701921
0.99698012
0.99696334
0.99696712
0.99698972
0.99702889
0.99708378
0.99715372
0.99723734
0.99733436
0.99744369
0.99756477
0.99769698
0.99784027
0.99799380
0.99815727
0.99833098
0.99851637
0.99871435
0.99892573
0.99915090
0.99938973
0.99964363
0.99991271
1.00019638
1.00049175
1.00079213
1.00109134
1.00138626
1.00167126
1.00194274
1.00219769
1.00243492
1.00265447
1.00285869
1.00304941
1.00322897
1.00339886
1.00356009
1.00371522
1.00386578
1.00401221
1.00415489
1.00429382
1.00442909
1.00456074
1.00468882
1.00481109
1.00492581
1.00503130
1.00512374
1.00520000
1.00525710
1.00529257
1.00530501
1.00529100
1.00524958
1.00518027
1.00508342
1.00496089
1.00481445
1.00464633
1.00445772
1.00425123
1.00402561
1.00378077
1.00351849
1.00324423
1.00296504
1.00269136
1.00243232
1.00219243
1.00197201
1.00177016
1.00159028
1.00143549
1.00130854
1.00120978
1.00113420
1.00107594
1.00102898
1.00099178
1.00096636
1.00095497
1.00096052
1.00098233
1.00101744
1.00106291
1.00111679
1.00117784
1.00124808
1.00132901
1.00142255
1.00152853
1.00164945
1.00178602
1.00194008
1.00211223
1.00230126
1.00250572
1.00272557
1.00296040
1.00321209
1.00348384
1.00377878
1.00409580
1.00443692
1.00480186
1.00519149
1.00560690
1.00604981
1.00652490
1.00703507
1.00758619
1.00818227
1.00883104
1.00954214
1.01032374
1.01118602
1.01214007
1.01319493
1.01436023
1.01563854
1.01702286
1.01849268
1.02000017
1.02146751
1.02277728
1.02377323
1.02426729
1.02402580
1.02269572
1.01963594
1.01337083
0.99969515
0.96505883
0.87000966
0.64966671
0.43230559