# vtk DataFile Version 3.0
Concentration output
ASCII
DATASET STRUCTURED_POINTS
DIMENSIONS 398 98 1
ORIGIN 0 0 0
SPACING 0.03 0.03 1.0
POINT_DATA 39004
SCALARS Variable float 1
LOOKUP_TABLE default
0.00000000
0.00000000
0.00000000
0.00000000
0.00000000
0.00000000
0.00000000
0.00000000
0.00000000
0.00000000
0.00000000
0.00000000
0.00000000
0.00000000
0.00000000
0.00000001
0.00000001
0.00000001
0.00000002
0.00000003
0.00000004
0.00000006
0.00000008
0.00000012
0.00000017
0.00000024
0.00000034
0.00000048
0.00000067
0.00000093
0.00000130
0.00000180
0.00000249
0.00000343
0.00000469
0.00000640
0.00000869
0.00001175
0.00001583
0.00002123
0.00002835
0.00003771
0.00004994
0.00006587
0.00008651
0.00011315
0.00014737
0.00019113
0.00024686
0.00031750
0.00040666
0.00051869
0.00065883
0.00083336
0.00104974
0.00131682
0.00164502
0.00204651
0.00253548
0.00312832
0.00384389
0.00470374
0.00573232
0.00695724
0.00840944
0.01012335
0.01213708
0.01449242
0.01723494
0.02041392
0.02408224
0.02829613
0.03311491
0.03860055
0.04481714
0.05183024
0.05970615
0.06851098
0.07830973
0.08916521
0.10113682
0.11427941
0.12864197
0.14426639
0.16118612
0.17942505
0.19899626
0.21990101
0.24212782
0.26565172
0.29043364
0.31642013
0.34354316
0.37172028
0.40085495
0.43083723
0.46154456
0.49284295
0.52458829
0.55662795
0.58880251
0.62094778
0.65289690
0.68448263
0.71553981
0.74590791
0.77543373
0.80397421
0.83139939
0.85759561
0.88246893
0.90594921
0.92799515
0.94860160
0.96781143
0.98573650
1.00259026
1.01869513
1.03416588
1.04640565
1.04293944
1.03052005
1.01687730
1.01082706
1.01313691
1.01985660
1.02263031
1.02268929
1.02184135
1.02072785
1.01825570
1.01218158
0.99858228
0.96934876
0.90894579
0.80204315
0.65690661
0.50916237
0.38222830
0.28228062
0.20704874
0.15167064
0.11129090
0.08191296
0.06050211
0.04483952
0.03333013
0.02483392
0.01853556
0.01384957
0.01035304
0.00773837
0.00578035
0.00431299
0.00321322
0.00238938
0.00177284
0.00131213
0.00096851
0.00071279
0.00052296
0.00038244
0.00027873
0.00020244
0.00014650
0.00010564
0.00007588
0.00005431
0.00003871
0.00002749
0.00001945
0.00001370
0.00000962
0.00000672
0.00000468
0.00000325
0.00000224
0.00000154
0.00000106
0.00000072
0.00000049
0.00000033
0.00000022
0.00000015
0.00000010
0.00000007
0.00000004
0.00000003
0.00000002
0.00000001
0.00000001
0.00000001
0.00000000
0.00000000
0.00000000
0.00000000
0.00000000
0.00000000
0.00000000
0.00000000
0.00000000
0.00000000
0.00000000
0.00000000
0.00000000
0.00000000
0.00000000
0.00000000
0.00000000
0.00000000
0.00000000
0.00000000
0.00000000
0.00000000
0.00000000
0.00000000
0.00000000
0.00000000
0.00000000
0.00000000
0.00000000
0.00000000
0.00000000
0.00000000
0.00000000
0.00000000
0.00000000
0.00000000
0.00000000
0.00000000
0.00000000
0.00000000
0.00000000
0.00000000
0.00000000
0.00000000
0.00000000
0.00000000
0.00000000
0.00000000
0.00000000
0.00000000
0.00000000
0.00000000
0.00000000
0.00000000
0.00000000
0.00000000
0.00000000
0.00000000
0.00000000
0.00000000
0.00000000
0.00000000
0.00000000
0.00000000
0.00000000
0.00000000
0.00000000
0.00000000
0.00000000
0.00000000
0.00000000
0.00000000
0.00000000
0.00000000
0.00000000
0.00000000
0.00000000
0.00000000
0.00000000
0.00000000
0.00000000
0.00000000
0.00000000
0.00000000
0.00000000
0.00000000
0.00000000
0.00000000
0.00000000
0.00000000
0.00000000
0.00000000
0.00000000
0.00000000
0.00000000
0.00000000
0.00000000
0.00000000
0.00000000
0.00000000
0.00000000
0.00000000
0.00000000
0.00000000
0.00000000
0.00000000
0.00000000
0.00000000
0.00000000
0.00000000
0.00000000
0.00000000
0.00000000
0.00000000
0.00000000
0.00000000
0.00000000
0.00000000
0.00000000
0.00000000
0.00000000
0.00000000
0.00000000
0.00000000
0.00000000
0.00000000
0.00000000
0.00000000
0.00000000
0.00000000
0.00000000
0.00000000
0.00000000
0.00000000
0.00000000
0.00000000
0.00000000
0.00000000
0.00000000
0.00000000
0.00000000
0.00000000
0.00000000
0.00000000
0.00000000
0.00000000
0.00000000
0.00000000
0.00000000
0.00000000
0.00000000
0.00000000
0.00000000
0.00000000
0.00000000
0.00000000
0.00000000
0.00000000
0.00000000
0.00000000
0.00000000
0.00000000
0.00000000
0.00000000
0.00000000
0.00000000
0.00000000
0.00000000
0.00000000
0.00000000
0.00000000
0.00000000
0.00000000
0.00000000
0.00000000
0.00000000
0.00000000
0.00000000
0.00000000
0.00000000
0.00000000
0.00000000
0.00000000
0.00000000
0.00000000
0.00000000
0.00000000
0.00000000
0.00000000
0.00000000
0.00000000
0.00000000
0.00000000
0.00000000
0.00000000
0.00000000
0.00000000
0.00000000
0.00000000
0.00000000
0.00000000
0.00000000
0.00000000
0.00000000
0.00000000
0.00000000
0.00000000
0.00000000
0.00000000
0.00000000
0.00000000
0.00000000
0.00000000
0.00000000
0.00000000
0.00000000
0.00000000
0.00000000
0.00000000
0.00000000
0.00000000
0.00000001
0.00000001
0.00000001
0.00000002
0.00000003
0.00000004
0.00000006
0.00000008
0.00000012
0.00000017
0.00000024
0.00000034
0.00000048
0.00000067
0.00000093
0.00000130
0.00000180
0.00000249
0.00000343
0.00000469
0.00000640
0.00000869
0.00001175
0.00001583
0.00002123
0.00002835
0.00003771
0.00004994
0.00006587
0.00008651
0.00011315
0.00014737
0.00019113
0.00024686
0.00031750
0.00040666
0.00051869
0.00065883
0.00083336
0.00104974
0.00131682
0.00164502
0.00204651
0.00253548
0.00312832
0.00384389
0.00470374
0.00573232
0.00695724
0.00840944
0.01012335
0.01213708
0.01449242
0.01723494
0.02041392
0.02408224
0.02829613
0.03311491
0.03860055
0.04481714
0.05183025
0.05970615
0.06851099
0.07830975
0.08916522
0.10113684
0.11427944
0.12864202
0.14426646
0.16118622
0.17942519
0.19899645
0.21990128
0.24212819
0.26565221
0.29043432
0.31642104
0.34354438
0.37172189
0.40085708
0.43084002
0.46154819
0.49284763
0.52459428
0.55663554
0.58881207
0.62095970
0.65291163
0.68450066
0.71556164
0.74593405
0.77546461
0.80401008
0.83144019
0.85764056
0.88251594
0.90599351
0.92802647
0.94859768
0.96772305
0.98545180
1.00185270
1.01693694
1.03035397
1.04023901
1.04036686
1.02962662
1.01471358
1.01018288
1.01457379
1.02144524
1.02432827
1.02455235
1.02424514
1.02417991
1.02353332
1.02143872
1.01403031
0.99331507
0.94557694
0.84810908
0.69354937
0.52964637
0.39158105
0.28591215
0.20817575
0.15184209
0.11116193
0.08173088
0.06034551
0.04472384
0.03325055
0.02478128
0.01850156
0.01382796
0.01033944
0.00772989
0.00577509
0.00430974
0.00321123
0.00238815
0.00177210
0.00131168
0.00096824
0.00071262
0.00052286
0.00038238
0.00027870
0.00020242
0.00014649
0.00010563
0.00007588
0.00005430
0.00003871
0.00002749
0.00001945
0.00001370
0.00000962
0.00000672
0.00000468
0.00000325
0.00000224
0.00000154
0.00000106
0.00000072
0.00000049
0.00000033
0.00000022
0.00000015
0.00000010
0.00000007
0.00000004
0.00000003
0.00000002
0.00000001
0.00000001
0.00000001
0.00000000
0.00000000
0.00000000
0.00000000
0.00000000
0.00000000
0.00000000
0.00000000
0.00000000
0.00000000
0.00000000
0.00000000
0.00000000
0.00000000
0.00000000
0.00000000
0.00000000
0.00000000
0.00000000
0.00000000
0.00000000
0.00000000
0.00000000
0.00000000
0.00000000
0.00000000
0.00000000
0.00000000
0.00000000
0.00000000
0.00000000
0.00000000
0.00000000
0.00000000
0.00000000
0.00000000
0.00000000
0.00000000
0.00000000
0.00000000
0.00000000
0.00000000
0.00000000
0.00000000
0.00000000
0.00000000
0.00000000
0.00000000
0.00000000
0.00000000
0.00000000
0.00000000
0.00000000
0.00000000
0.00000000
0.00000000
0.00000000
0.00000000
0.00000000
0.00000000
0.00000000
0.00000000
0.00000000
0.00000000
0.00000000
0.00000000
0.00000000
0.00000000
0.00000000
0.00000000
0.00000000
0.00000000
0.00000000
0.00000000
0.00000000
0.00000000
0.00000000
0.00000000
0.00000000
0.00000000
0.00000000
0.00000000
0.00000000
0.00000000
0.00000000
0.00000000
0.00000000
0.00000000
0.00000000
0.00000000
0.00000000
0.00000000
0.00000000
0.00000000
0.00000000
0.00000000
0.00000000
0.00000000
0.00000000
0.00000000
0.00000000
0.00000000
0.00000000
0.00000000
0.00000000
0.00000000
0.00000000
0.00000000
0.00000000
0.00000000
0.00000000
0.00000000
0.00000000
0.00000000
0.00000000
0.00000000
0.00000000
0.00000000
0.00000000
0.00000000
0.00000000
0.00000000
0.00000000
0.00000000
0.00000000
0.00000000
0.00000000
0.00000000
0.00000000
0.00000000
0.00000000
0.00000000
0.00000000
0.00000000
0.00000000
0.00000000
0.00000000
0.00000000
0.00000000
0.00000000
0.00000000
0.00000000
0.00000000
0.00000000
0.00000000
0.00000000
0.00000000
0.00000000
0.00000000
0.00000000
0.00000000
0.00000000
0.00000000
0.00000000
0.00000000
0.00000000
0.00000000
0.00000000
0.00000000
0.00000000
0.00000000
0.00000000
0.00000000
0.00000000
0.00000000
0.00000000
0.00000000
0.00000000
0.00000000
0.00000000
0.00000000
0.00000000
0.00000000
0.00000000
0.00000000
0.00000000
0.00000000
0.00000000
0.00000000
0.00000000
0.00000000
0.00000000
0.00000000
0.00000000
0.00000000
0.00000000
0.00000000
0.00000000
0.00000000
0.00000000
0.00000000
0.00000000
0.00000000
0.00000000
0.00000000
0.00000000
0.00000000
0.00000000
0.00000000
0.00000000
0.00000000
0.00000000
0.00000000
0.00000000
0.00000000
0.00000000
0.00000000
0.00000000
0.00000000
0.00000000
0.00000000
0.00000000
0.00000000
0.00000000
0.00000000
0.00000000
0.00000000
0.00000000
0.00000000
0.00000000
0.00000000
0.00000001
0.00000001
0.00000001
0.00000002
0.00000003
0.00000004
0.00000006
0.00000008
0.00000012
0.00000017
0.00000024
0.00000034
0.00000048
0.00000067
0.00000093
0.00000130
0.00000180
0.00000249
0.00000343
0.00000469
0.00000640
0.00000869
0.00001175
0.00001583
0.00002123
0.00002835
0.00003771
0.00004994
0.00006587
0.00008651
0.00011315
0.00014737
0.00019113
0.00024686
0.00031750
0.00040666
0.00051869
0.00065883
0.00083336
0.00104974
0.00131682
0.00164502
0.00204651
0.00253548
0.00312832
0.00384389
0.00470374
0.00573232
0.00695724
0.00840944
0.01012335
0.01213708
0.01449242
0.01723494
0.02041393
0.02408224
0.02829613
0.03311492
0.03860056
0.04481715
0.05183026
0.05970616
0.06851100
0.07830977
0.08916526
0.10113689
0.11427951
0.12864212
0.14426659
0.16118642
0.17942546
0.19899683
0.21990179
0.24212890
0.26565319
0.29043564
0.31642282
0.34354676
0.37172506
0.40086127
0.43084550
0.46155531
0.49285681
0.52460603
0.55665046
0.58883083
0.62098311
0.65294055
0.68453606
0.71560453
0.74598542
0.77552535
0.80408081
0.83152097
0.85773041
0.88261194
0.90608909
0.92810796
0.94863723
0.96766361
0.98517618
1.00112395
1.01531002
1.02715333
1.03523018
1.03664916
1.03021281
1.02044787
1.01790073
1.02115416
1.02577281
1.02802684
1.02797763
1.02703203
1.02576237
1.02403232
1.02076363
1.01421184
1.00079176
0.97173343
0.90319011
0.74951135
0.56162445
0.40539591
0.29069390
0.20926945
0.15167333
0.11068931
0.08128034
0.05999911
0.04448058
0.03308765
0.02467521
0.01843372
0.01378508
0.01031258
0.00771317
0.00576473
0.00430336
0.00320731
0.00238576
0.00177064
0.00131079
0.00096770
0.00071230
0.00052267
0.00038226
0.00027863
0.00020238
0.00014647
0.00010561
0.00007587
0.00005430
0.00003871
0.00002749
0.00001945
0.00001370
0.00000962
0.00000672
0.00000468
0.00000325
0.00000224
0.00000154
0.00000106
0.00000072
0.00000049
0.00000033
0.00000022
0.00000015
0.00000010
0.00000007
0.00000004
0.00000003
0.00000002
0.00000001
0.00000001
0.00000001
0.00000000
0.00000000
0.00000000
0.00000000
0.00000000
0.00000000
0.00000000
0.00000000
0.00000000
0.00000000
0.00000000
0.00000000
0.00000000
0.00000000
0.00000000
0.00000000
0.00000000
0.00000000
0.00000000
0.00000000
0.00000000
0.00000000
0.00000000
0.00000000
0.00000000
0.00000000
0.00000000
0.00000000
0.00000000
0.00000000
0.00000000
0.00000000
0.00000000
0.00000000
0.00000000
0.00000000
0.00000000
0.00000000
0.00000000
0.00000000
0.00000000
0.00000000
0.00000000
0.00000000
0.00000000
0.00000000
0.00000000
0.00000000
0.00000000
0.00000000
0.00000000
0.00000000
0.00000000
0.00000000
0.00000000
0.00000000
0.00000000
0.00000000
0.00000000
0.00000000
0.00000000
0.00000000
0.00000000
0.00000000
0.00000000
0.00000000
0.00000000
0.00000000
0.00000000
0.00000000
0.00000000
0.00000000
0.00000000
0.00000000
0.00000000
0.00000000
0.00000000
0.00000000
0.00000000
0.00000000
0.00000000
0.00000000
0.00000000
0.00000000
0.00000000
0.00000000
0.00000000
0.00000000
0.00000000
0.00000000
0.00000000
0.00000000
0.00000000
0.00000000
0.00000000
0.00000000
0.00000000
0.00000000
0.00000000
0.00000000
0.00000000
0.00000000
0.00000000
0.00000000
0.00000000
0.00000000
0.00000000
0.00000000
0.00000000
0.00000000
0.00000000
0.00000000
0.00000000
0.00000000
0.00000000
0.00000000
0.00000000
0.00000000
0.00000000
0.00000000
0.00000000
0.00000000
0.00000000
0.00000000
0.00000000
0.00000000
0.00000000
0.00000000
0.00000000
0.00000000
0.00000000
0.00000000
0.00000000
0.00000000
0.00000000
0.00000000
0.00000000
0.00000000
0.00000000
0.00000000
0.00000000
0.00000000
0.00000000
0.00000000
0.00000000
0.00000000
0.00000000
0.00000000
0.00000000
0.00000000
0.00000000
0.00000000
0.00000000
0.00000000
0.00000000
0.00000000
0.00000000
0.00000000
0.00000000
0.00000000
0.00000000
0.00000000
0.00000000
0.00000000
0.00000000
0.00000000
0.00000000
0.00000000
0.00000000
0.00000000
0.00000000
0.00000000
0.00000000
0.00000000
0.00000000
0.00000000
0.00000000
0.00000000
0.00000000
0.00000000
0.00000000
0.00000000
0.00000000
0.00000000
0.00000000
0.00000000
0.00000000
0.00000000
0.00000000
0.00000000
0.00000000
0.00000000
0.00000000
0.00000000
0.00000000
0.00000000
0.00000000
0.00000000
0.00000000
0.00000000
0.00000000
0.00000000
0.00000000
0.00000000
0.00000000
0.00000000
0.00000000
0.00000000
0.00000000
0.00000000
0.00000000
0.00000000
0.00000000
0.00000000
0.00000000
0.00000000
0.00000000
0.00000000
0.00000000
0.00000000
0.00000000
0.00000001
0.00000001
0.00000001
0.00000002
0.00000003
0.00000004
0.00000006
0.00000008
0.00000012
0.00000017
0.00000024
0.00000034
0.00000048
0.00000067
0.00000093
0.00000130
0.00000180
0.00000249
0.00000343
0.00000469
0.00000640
0.00000869
0.00001175
0.00001583
0.00002123
0.00002835
0.00003771
0.00004995
0.00006587
0.00008651
0.00011315
0.00014737
0.00019113
0.00024686
0.00031750
0.00040666
0.00051869
0.00065883
0.00083336
0.00104974
0.00131682
0.00164502
0.00204651
0.00253548
0.00312832
0.00384389
0.00470374
0.00573232
0.00695724
0.00840944
0.01012336
0.01213708
0.01449242
0.01723494
0.02041393
0.02408224
0.02829614
0.03311492
0.03860057
0.04481716
0.05183027
0.05970618
0.06851103
0.07830981
0.08916531
0.10113696
0.11427961
0.12864226
0.14426679
0.16118670
0.17942585
0.19899737
0.21990255
0.24212994
0.26565460
0.29043756
0.31642541
0.34355023
0.37172967
0.40086735
0.43085347
0.46156567
0.49287018
0.52462313
0.55667215
0.58885813
0.62101715
0.65298262
0.68458756
0.71566694
0.74606022
0.77561390
0.80418420
0.83163969
0.85786398
0.88275818
0.90624308
0.92826034
0.94877129
0.96775062
0.98516840
1.00094780
1.01487532
1.02643336
1.03455109
1.03748761
1.03401592
1.02699284
1.02535892
1.02834332
1.03232549
1.03416964
1.03312696
1.03065339
1.02802118
1.02486137
1.02015360
1.01242995
0.99899950
0.97423995
0.92111740
0.78581818
0.58289134
0.41280675
0.29176657
0.20827164
0.15032664
0.10954136
0.08043428
0.05941667
0.04409445
0.03283750
0.02451556
0.01833288
0.01372187
0.01027319
0.00768874
0.00574965
0.00429407
0.00320161
0.00238228
0.00176852
0.00130951
0.00096692
0.00071183
0.00052238
0.00038209
0.00027853
0.00020232
0.00014643
0.00010559
0.00007586
0.00005429
0.00003871
0.00002749
0.00001944
0.00001370
0.00000962
0.00000672
0.00000468
0.00000325
0.00000224
0.00000154
0.00000106
0.00000072
0.00000049
0.00000033
0.00000022
0.00000015
0.00000010
0.00000007
0.00000004
0.00000003
0.00000002
0.00000001
0.00000001
0.00000001
0.00000000
0.00000000
0.00000000
0.00000000
0.00000000
0.00000000
0.00000000
0.00000000
0.00000000
0.00000000
0.00000000
0.00000000
0.00000000
0.00000000
0.00000000
0.00000000
0.00000000
0.00000000
0.00000000
0.00000000
0.00000000
0.00000000
0.00000000
0.00000000
0.00000000
0.00000000
0.00000000
0.00000000
0.00000000
0.00000000
0.00000000
0.00000000
0.00000000
0.00000000
0.00000000
0.00000000
0.00000000
0.00000000
0.00000000
0.00000000
0.00000000
0.00000000
0.00000000
0.00000000
0.00000000
0.00000000
0.00000000
0.00000000
0.00000000
0.00000000
0.00000000
0.00000000
0.00000000
0.00000000
0.00000000
0.00000000
0.00000000
0.00000000
0.00000000
0.00000000
0.00000000
0.00000000
0.00000000
0.00000000
0.00000000
0.00000000
0.00000000
0.00000000
0.00000000
0.00000000
0.00000000
0.00000000
0.00000000
0.00000000
0.00000000
0.00000000
0.00000000
0.00000000
0.00000000
0.00000000
0.00000000
0.00000000
0.00000000
0.00000000
0.00000000
0.00000000
0.00000000
0.00000000
0.00000000
0.00000000
0.00000000
0.00000000
0.00000000
0.00000000
0.00000000
0.00000000
0.00000000
0.00000000
0.00000000
0.00000000
0.00000000
0.00000000
0.00000000
0.00000000
0.00000000
0.00000000
0.00000000
0.00000000
0.00000000
0.00000000
0.00000000
0.00000000
0.00000000
0.00000000
0.00000000
0.00000000
0.00000000
0.00000000
0.00000000
0.00000000
0.00000000
0.00000000
0.00000000
0.00000000
0.00000000
0.00000000
0.00000000
0.00000000
0.00000000
0.00000000
0.00000000
0.00000000
0.00000000
0.00000000
0.00000000
0.00000000
0.00000000
0.00000000
0.00000000
0.00000000
0.00000000
0.00000000
0.00000000
0.00000000
0.00000000
0.00000000
0.00000000
0.00000000
0.00000000
0.00000000
0.00000000
0.00000000
0.00000000
0.00000000
0.00000000
0.00000000
0.00000000
0.00000000
0.00000000
0.00000000
0.00000000
0.00000000
0.00000000
0.00000000
0.00000000
0.00000000
0.00000000
0.00000000
0.00000000
0.00000000
0.00000000
0.00000000
0.00000000
0.00000000
0.00000000
0.00000000
0.00000000
0.00000000
0.00000000
0.00000000
0.00000000
0.00000000
0.00000000
0.00000000
0.00000000
0.00000000
0.00000000
0.00000000
0.00000000
0.00000000
0.00000000
0.00000000
0.00000000
0.00000000
0.00000000
0.00000000
0.00000000
0.00000000
0.00000000
0.00000000
0.00000000
0.00000000
0.00000000
0.00000000
0.00000000
0.00000000
0.00000000
0.00000000
0.00000000
0.00000000
0.00000000
0.00000000
0.00000000
0.00000000
0.00000000
0.00000000
0.00000000
0.00000000
0.00000000
0.00000000
0.00000000
0.00000001
0.00000001
0.00000001
0.00000002
0.00000003
0.00000004
0.00000006
0.00000008
0.00000012
0.00000017
0.00000024
0.00000034
0.00000048
0.00000067
0.00000093
0.00000130
0.00000180
0.00000249
0.00000343
0.00000469
0.00000640
0.00000869
0.00001175
0.00001583
0.00002123
0.00002835
0.00003771
0.00004995
0.00006587
0.00008651
0.00011315
0.00014737
0.00019113
0.00024686
0.00031750
0.00040666
0.00051869
0.00065883
0.00083336
0.00104974
0.00131682
0.00164502
0.00204651
0.00253548
0.00312832
0.00384389
0.00470374
0.00573232
0.00695724
0.00840944
0.01012336
0.01213708
0.01449242
0.01723495
0.02041393
0.02408225
0.02829614
0.03311493
0.03860058
0.04481717
0.05183029
0.05970621
0.06851106
0.07830985
0.08916537
0.10113705
0.11427974
0.12864245
0.14426705
0.16118706
0.17942636
0.19899807
0.21990351
0.24213126
0.26565641
0.29044002
0.31642872
0.34355466
0.37173556
0.40087512
0.43086365
0.46157890
0.49288723
0.52464495
0.55669984
0.58889296
0.62106059
0.65303632
0.68465330
0.71574663
0.74615578
0.77572717
0.80431676
0.83179264
0.85803767
0.88295201
0.90645550
0.92848951
0.94901771
0.96802412
0.98550519
1.00144853
1.01578099
1.02824320
1.03809876
1.04347061
1.04084395
1.03140881
1.03015964
1.03543128
1.04147501
1.04383994
1.04089099
1.03580917
1.03186475
1.02811164
1.02296394
1.01487696
1.00108956
0.97546455
0.91683303
0.76533658
0.56450523
0.40054220
0.28394051
0.20325545
0.14709769
0.10746554
0.07910606
0.05857180
0.04356011
0.03250128
0.02430496
0.01820149
0.01364018
0.01022256
0.00765745
0.00573037
0.00428223
0.00319436
0.00237785
0.00176582
0.00130787
0.00096593
0.00071123
0.00052202
0.00038188
0.00027840
0.00020224
0.00014639
0.00010557
0.00007584
0.00005428
0.00003870
0.00002748
0.00001944
0.00001370
0.00000962
0.00000672
0.00000468
0.00000325
0.00000224
0.00000154
0.00000106
0.00000072
0.00000049
0.00000033
0.00000022
0.00000015
0.00000010
0.00000007
0.00000004
0.00000003
0.00000002
0.00000001
0.00000001
0.00000001
0.00000000
0.00000000
0.00000000
0.00000000
0.00000000
0.00000000
0.00000000
0.00000000
0.00000000
0.00000000
0.00000000
0.00000000
0.00000000
0.00000000
0.00000000
0.00000000
0.00000000
0.00000000
0.00000000
0.00000000
0.00000000
0.00000000
0.00000000
0.00000000
0.00000000
0.00000000
0.00000000
0.00000000
0.00000000
0.00000000
0.00000000
0.00000000
0.00000000
0.00000000
0.00000000
0.00000000
0.00000000
0.00000000
0.00000000
0.00000000
0.00000000
0.00000000
0.00000000
0.00000000
0.00000000
0.00000000
0.00000000
0.00000000
0.00000000
0.00000000
0.00000000
0.00000000
0.00000000
0.00000000
0.00000000
0.00000000
0.00000000
0.00000000
0.00000000
0.00000000
0.00000000
0.00000000
0.00000000
0.00000000
0.00000000
0.00000000
0.00000000
0.00000000
0.00000000
0.00000000
0.00000000
0.00000000
0.00000000
0.00000000
0.00000000
0.00000000
0.00000000
0.00000000
0.00000000
0.00000000
0.00000000
0.00000000
0.00000000
0.00000000
0.00000000
0.00000000
0.00000000
0.00000000
0.00000000
0.00000000
0.00000000
0.00000000
0.00000000
0.00000000
0.00000000
0.00000000
0.00000000
0.00000000
0.00000000
0.00000000
0.00000000
0.00000000
0.00000000
0.00000000
0.00000000
0.00000000
0.00000000
0.00000000
0.00000000
0.00000000
0.00000000
0.00000000
0.00000000
0.00000000
0.00000000
0.00000000
0.00000000
0.00000000
0.00000000
0.00000000
0.00000000
0.00000000
0.00000000
0.00000000
0.00000000
0.00000000
0.00000000
0.00000000
0.00000000
0.00000000
0.00000000
0.00000000
0.00000000
0.00000000
0.00000000
0.00000000
0.00000000
0.00000000
0.00000000
0.00000000
0.00000000
0.00000000
0.00000000
0.00000000
0.00000000
0.00000000
0.00000000
0.00000000
0.00000000
0.00000000
0.00000000
0.00000000
0.00000000
0.00000000
0.00000000
0.00000000
0.00000000
0.00000000
0.00000000
0.00000000
0.00000000
0.00000000
0.00000000
0.00000000
0.00000000
0.00000000
0.00000000
0.00000000
0.00000000
0.00000000
0.00000000
0.00000000
0.00000000
0.00000000
0.00000000
0.00000000
0.00000000
0.00000000
0.00000000
0.00000000
0.00000000
0.00000000
0.00000000
0.00000000
0.00000000
0.00000000
0.00000000
0.00000000
0.00000000
0.00000000
0.00000000
0.00000000
0.00000000
0.00000000
0.00000000
0.00000000
0.00000000
0.00000000
0.00000000
0.00000000
0.00000000
0.00000000
0.00000000
0.00000000
0.00000000
0.00000000
0.00000000
0.00000000
0.00000000
0.00000000
0.00000000
0.00000000
0.00000000
0.00000000
0.00000000
0.00000000
0.00000000
0.00000000
0.00000000
0.00000000
0.00000000
0.00000001
0.00000001
0.00000001
0.00000002
0.00000003
0.00000004
0.00000006
0.00000008
0.00000012
0.00000017
0.00000024
0.00000034
0.00000048
0.00000067
0.00000093
0.00000130
0.00000180
0.00000249
0.00000343
0.00000469
0.00000640
0.00000869
0.00001175
0.00001583
0.00002123
0.00002835
0.00003771
0.00004995
0.00006587
0.00008651
0.00011315
0.00014737
0.00019113
0.00024686
0.00031750
0.00040666
0.00051869
0.00065883
0.00083336
0.00104974
0.00131682
0.00164502
0.00204651
0.00253548
0.00312832
0.00384389
0.00470374
0.00573232
0.00695724
0.00840944
0.01012336
0.01213708
0.01449242
0.01723495
0.02041394
0.02408225
0.02829615
0.03311494
0.03860059
0.04481719
0.05183031
0.05970623
0.06851110
0.07830991
0.08916545
0.10113716
0.11427990
0.12864266
0.14426735
0.16118748
0.17942695
0.19899890
0.21990465
0.24213283
0.26565855
0.29044292
0.31643264
0.34355990
0.37174252
0.40088430
0.43087567
0.46159452
0.49290738
0.52467072
0.55673253
0.58893410
0.62111190
0.65309974
0.68473096
0.71584077
0.74626872
0.77586115
0.80447380
0.83197436
0.85824516
0.88318592
0.90671670
0.92878131
0.94935149
0.96843282
0.98607367
1.00237857
1.01751793
1.03167323
1.04460835
1.05360421
1.04957637
1.03474216
1.03317310
1.04327095
1.05422947
1.05847908
1.05216924
1.04219118
1.03705152
1.03334752
1.02781869
1.01819513
0.99946898
0.95969975
0.86882872
0.69777451
0.51698587
0.37317577
0.26876916
0.19471493
0.14215193
0.10452954
0.07733192
0.05748753
0.04289311
0.03208958
0.02405048
0.01804417
0.01354300
0.01016260
0.00762052
0.00570766
0.00426830
0.00318583
0.00237264
0.00176265
0.00130594
0.00096476
0.00071053
0.00052160
0.00038163
0.00027825
0.00020215
0.00014633
0.00010553
0.00007582
0.00005427
0.00003869
0.00002748
0.00001944
0.00001370
0.00000961
0.00000672
0.00000468
0.00000325
0.00000224
0.00000154
0.00000106
0.00000072
0.00000049
0.00000033
0.00000022
0.00000015
0.00000010
0.00000007
0.00000004
0.00000003
0.00000002
0.00000001
0.00000001
0.00000001
0.00000000
0.00000000
0.00000000
0.00000000
0.00000000
0.00000000
0.00000000
0.00000000
0.00000000
0.00000000
0.00000000
0.00000000
0.00000000
0.00000000
0.00000000
0.00000000
0.00000000
0.00000000
0.00000000
0.00000000
0.00000000
0.00000000
0.00000000
0.00000000
0.00000000
0.00000000
0.00000000
0.00000000
0.00000000
0.00000000
0.00000000
0.00000000
0.00000000
0.00000000
0.00000000
0.00000000
0.00000000
0.00000000
0.00000000
0.00000000
0.00000000
0.00000000
0.00000000
0.00000000
0.00000000
0.00000000
0.00000000
0.00000000
0.00000000
0.00000000
0.00000000
0.00000000
0.00000000
0.00000000
0.00000000
0.00000000
0.00000000
0.00000000
0.00000000
0.00000000
0.00000000
0.00000000
0.00000000
0.00000000
0.00000000
0.00000000
0.00000000
0.00000000
0.00000000
0.00000000
0.00000000
0.00000000
0.00000000
0.00000000
0.00000000
0.00000000
0.00000000
0.00000000
0.00000000
0.00000000
0.00000000
0.00000000
0.00000000
0.00000000
0.00000000
0.00000000
0.00000000
0.00000000
0.00000000
0.00000000
0.00000000
0.00000000
0.00000000
0.00000000
0.00000000
0.00000000
0.00000000
0.00000000
0.00000000
0.00000000
0.00000000
0.00000000
0.00000000
0.00000000
0.00000000
0.00000000
0.00000000
0.00000000
0.00000000
0.00000000
0.00000000
0.00000000
0.00000000
0.00000000
0.00000000
0.00000000
0.00000000
0.00000000
0.00000000
0.00000000
0.00000000
0.00000000
0.00000000
0.00000000
0.00000000
0.00000000
0.00000000
0.00000000
0.00000000
0.00000000
0.00000000
0.00000000
0.00000000
0.00000000
0.00000000
0.00000000
0.00000000
0.00000000
0.00000000
0.00000000
0.00000000
0.00000000
0.00000000
0.00000000
0.00000000
0.00000000
0.00000000
0.00000000
0.00000000
0.00000000
0.00000000
0.00000000
0.00000000
0.00000000
0.00000000
0.00000000
0.00000000
0.00000000
0.00000000
0.00000000
0.00000000
0.00000000
0.00000000
0.00000000
0.00000000
0.00000000
0.00000000
0.00000000
0.00000000
0.00000000
0.00000000
0.00000000
0.00000000
0.00000000
0.00000000
0.00000000
0.00000000
0.00000000
0.00000000
0.00000000
0.00000000
0.00000000
0.00000000
0.00000000
0.00000000
0.00000000
0.00000000
0.00000000
0.00000000
0.00000000
0.00000000
0.00000000
0.00000000
0.00000000
0.00000000
0.00000000
0.00000000
0.00000000
0.00000000
0.00000000
0.00000000
0.00000000
0.00000000
0.00000000
0.00000000
0.00000000
0.00000000
0.00000000
0.00000000
0.00000000
0.00000000
0.00000000
0.00000000
0.00000000
0.00000000
0.00000000
0.00000000
0.00000000
0.00000000
0.00000000
0.00000000
0.00000001
0.00000001
0.00000001
0.00000002
0.00000003
0.00000004
0.00000006
0.00000008
0.00000012
0.00000017
0.00000024
0.00000034
0.00000048
0.00000067
0.00000093
0.00000130
0.00000180
0.00000249
0.00000343
0.00000469
0.00000640
0.00000869
0.00001175
0.00001583
0.00002123
0.00002835
0.00003771
0.00004995
0.00006587
0.00008651
0.00011315
0.00014737
0.00019113
0.00024686
0.00031750
0.00040666
0.00051869
0.00065883
0.00083336
0.00104974
0.00131682
0.00164502
0.00204651
0.00253548
0.00312832
0.00384389
0.00470374
0.00573232
0.00695725
0.00840944
0.01012336
0.01213709
0.01449243
0.01723495
0.02041394
0.02408226
0.02829616
0.03311495
0.03860060
0.04481721
0.05183033
0.05970627
0.06851115
0.07830997
0.08916554
0.10113729
0.11428007
0.12864291
0.14426770
0.16118796
0.17942762
0.19899983
0.21990594
0.24213459
0.26566095
0.29044617
0.31643702
0.34356576
0.37175031
0.40089458
0.43088912
0.46161200
0.49292991
0.52469954
0.55676910
0.58898011
0.62116929
0.65317067
0.68481782
0.71594610
0.74639512
0.77601117
0.80464976
0.83217818
0.85847822
0.88344907
0.90701084
0.92910911
0.94972189
0.96887150
0.98664665
1.00324514
1.01904496
1.03463058
1.05017435
1.06127628
1.05383145
1.04174150
1.03995196
1.05263511
1.06912768
1.07542113
1.06511378
1.04821602
1.04140059
1.03667762
1.02758223
1.00969768
0.97211008
0.89955488
0.77371977
0.61221097
0.46129921
0.34082589
0.25052045
0.18437421
0.13619555
0.10103530
0.07524960
0.05623162
0.04212916
0.03162227
0.02376364
0.01786777
0.01343445
0.01009581
0.00757945
0.00568245
0.00425284
0.00317638
0.00236687
0.00175913
0.00130381
0.00096347
0.00070975
0.00052113
0.00038134
0.00027808
0.00020205
0.00014627
0.00010550
0.00007580
0.00005426
0.00003869
0.00002748
0.00001944
0.00001370
0.00000961
0.00000672
0.00000468
0.00000325
0.00000224
0.00000154
0.00000106
0.00000072
0.00000049
0.00000033
0.00000022
0.00000015
0.00000010
0.00000007
0.00000004
0.00000003
0.00000002
0.00000001
0.00000001
0.00000001
0.00000000
0.00000000
0.00000000
0.00000000
0.00000000
0.00000000
0.00000000
0.00000000
0.00000000
0.00000000
0.00000000
0.00000000
0.00000000
0.00000000
0.00000000
0.00000000
0.00000000
0.00000000
0.00000000
0.00000000
0.00000000
0.00000000
0.00000000
0.00000000
0.00000000
0.00000000
0.00000000
0.00000000
0.00000000
0.00000000
0.00000000
0.00000000
0.00000000
0.00000000
0.00000000
0.00000000
0.00000000
0.00000000
0.00000000
0.00000000
0.00000000
0.00000000
0.00000000
0.00000000
0.00000000
0.00000000
0.00000000
0.00000000
0.00000000
0.00000000
0.00000000
0.00000000
0.00000000
0.00000000
0.00000000
0.00000000
0.00000000
0.00000000
0.00000000
0.00000000
0.00000000
0.00000000
0.00000000
0.00000000
0.00000000
0.00000000
0.00000000
0.00000000
0.00000000
0.00000000
0.00000000
0.00000000
0.00000000
0.00000000
0.00000000
0.00000000
0.00000000
0.00000000
0.00000000
0.00000000
0.00000000
0.00000000
0.00000000
0.00000000
0.00000000
0.00000000
0.00000000
0.00000000
0.00000000
0.00000000
0.00000000
0.00000000
0.00000000
0.00000000
0.00000000
0.00000000
0.00000000
0.00000000
0.00000000
0.00000000
0.00000000
0.00000000
0.00000000
0.00000000
0.00000000
0.00000000
0.00000000
0.00000000
0.00000000
0.00000000
0.00000000
0.00000000
0.00000000
0.00000000
0.00000000
0.00000000
0.00000000
0.00000000
0.00000000
0.00000000
0.00000000
0.00000000
0.00000000
0.00000000
0.00000000
0.00000000
0.00000000
0.00000000
0.00000000