# vtk DataFile Version 3.0
Concentration output
ASCII
DATASET STRUCTURED_POINTS
DIMENSIONS 398 98 1
ORIGIN 0 0 0
SPACING 0.03 0.03 1.0
POINT_DATA 39004
SCALARS Variable float 1
LOOKUP_TABLE default
0.00069275
0.00070247
0.00072200
0.00075152
0.00079133
0.00084179
0.00090340
0.00097673
0.00106246
0.00116137
0.00127437
0.00140246
0.00154675
0.00170850
0.00188908
0.00208996
0.00231280
0.00255935
0.00283152
0.00313138
0.00346114
0.00382318
0.00422003
0.00465440
0.00512918
0.00564743
0.00621240
0.00682753
0.00749643
0.00822294
0.00901108
0.00986507
0.01078933
0.01178849
0.01286738
0.01403104
0.01528468
0.01663375
0.01808385
0.01964080
0.02131058
0.02309935
0.02501344
0.02705933
0.02924362
0.03157307
0.03405453
0.03669496
0.03950139
0.04248091
0.04564066
0.04898776
0.05252937
0.05627258
0.06022443
0.06439189
0.06878178
0.07340079
0.07825545
0.08335206
0.08869668
0.09429509
0.10015280
0.10627493
0.11266626
0.11933115
0.12627353
0.13349686
0.14100407
0.14879760
0.15687930
0.16525045
0.17391170
0.18286306
0.19210390
0.20163290
0.21144803
0.22154656
0.23192504
0.24257928
0.25350435
0.26469458
0.27614357
0.28784416
0.29978847
0.31196790
0.32437315
0.33699422
0.34982044
0.36284050
0.37604245
0.38941379
0.40294143
0.41661177
0.43041073
0.44432378
0.45833600
0.47243210
0.48659651
0.50081338
0.51506664
0.52934010
0.54361741
0.55788222
0.57211813
0.58630881
0.60043802
0.61448970
0.62844796
0.64229716
0.65602199
0.66960746
0.68303899
0.69630242
0.70938406
0.72227077
0.73494993
0.74740950
0.75963810
0.77162496
0.78336001
0.79483385
0.80603782
0.81696401
0.82760524
0.83795512
0.84800804
0.85775916
0.86720445
0.87634067
0.88516540
0.89367699
0.90187460
0.90975818
0.91732845
0.92458692
0.93153583
0.93817821
0.94451777
0.95055898
0.95630699
0.96176762
0.96694737
0.97185336
0.97649335
0.98087570
0.98500933
0.98890375
0.99256900
0.99601564
0.99925470
1.00229765
1.00515628
1.00784251
1.01036808
1.01274398
1.01497964
1.01708180
1.01905339
1.02089302
1.02259670
1.02416260
1.02560071
1.02694206
1.02823772
1.02955210
1.03094150
1.03243473
1.03402951
1.03570056
1.03741129
1.03912219
1.04079591
1.04239945
1.04390484
1.04528909
1.04653364
1.04762376
1.04854803
1.04929780
1.04986680
1.05025085
1.05044761
1.05045642
1.05027823
1.04991556
1.04937265
1.04865554
1.04777248
1.04673437
1.04555547
1.04425434
1.04285500
1.04138824
1.03989293
1.03841692
1.03701722
1.03575857
1.03471027
1.03394100
1.03351240
1.03347273
1.03385161
1.03465682
1.03587345
1.03746580
1.03938187
1.04156001
1.04393598
1.04644898
1.04904557
1.05168145
1.05432156
1.05693911
1.05951421
1.06203235
1.06448313
1.06685915
1.06915517
1.07136744
1.07349332
1.07553097
1.07747913
1.07933710
1.08110471
1.08278234
1.08437110
1.08587289
1.08729061
1.08862833
1.08989142
1.09108678
1.09222285
1.09330970
1.09435893
1.09538354
1.09639752
1.09741541
1.09845156
1.09951927
1.10062973
1.10179087
1.10300622
1.10427388
1.10558575
1.10692741
1.10827864
1.10961493
1.11091025
1.11214097
1.11329145
1.11436094
1.11537253
1.11638419
1.11750303
1.11890410
1.12085186
1.12371993
1.12796539
1.13393077
1.14102366
1.14554141
1.13779423
1.10902900
1.06845083
1.02135355
0.95160931
0.82344724
0.64767064
0.47972061
0.34398314
0.24236093
0.16910097
0.11732217
0.08112508
0.05598116
0.03858149
0.02656897
0.01828781
0.01258422
0.00865816
0.00595660
0.00409797
0.00281938
0.00193981
0.00133472
0.00091841
0.00063197
0.00043487
0.00029924
0.00020589
0.00014165
0.00009744
0.00006701
0.00004607
0.00003167
0.00002176
0.00001495
0.00001026
0.00000704
0.00000483
0.00000331
0.00000227
0.00000155
0.00000106
0.00000073
0.00000050
0.00000034
0.00000023
0.00000016
0.00000011
0.00000007
0.00000005
0.00000003
0.00000002
0.00000002
0.00000001
0.00000001
0.00000000
0.00000000
0.00000000
0.00000000
0.00000000
0.00000000
0.00000000
0.00000000
0.00000000
0.00000000
0.00000000
0.00000000
0.00000000
0.00000000
0.00000000
0.00000000
0.00000000
0.00000000
0.00000000
0.00000000
0.00000000
0.00000000
0.00000000
0.00000000
0.00000000
0.00000000
0.00000000
0.00000000
0.00000000
0.00000000
0.00000000
0.00000000
0.00000000
0.00000000
0.00000000
0.00000000
0.00000000
0.00000000
0.00000000
0.00000000
0.00000000
0.00000000
0.00000000
0.00000000
0.00000000
0.00000000
0.00000000
0.00000000
0.00000000
0.00000000
0.00000000
0.00000000
0.00000000
0.00000000
0.00000000
0.00000000
0.00000000
0.00000000
0.00000000
0.00000000
0.00000000
0.00000000
0.00000000
0.00000000
0.00000000
0.00000000
0.00000000
0.00000000
0.00000000
0.00000000
0.00000000
0.00000000
0.00000000
0.00000000
0.00000000
0.00000000
0.00000000
0.00000000
0.00000000
0.00000000
0.00069275
0.00070247
0.00072200
0.00075152
0.00079133
0.00084179
0.00090340
0.00097673
0.00106246
0.00116137
0.00127437
0.00140246
0.00154675
0.00170850
0.00188908
0.00208996
0.00231280
0.00255935
0.00283152
0.00313138
0.00346114
0.00382318
0.00422003
0.00465440
0.00512918
0.00564743
0.00621240
0.00682753
0.00749643
0.00822294
0.00901108
0.00986507
0.01078933
0.01178849
0.01286738
0.01403104
0.01528468
0.01663375
0.01808385
0.01964080
0.02131058
0.02309935
0.02501344
0.02705933
0.02924362
0.03157307
0.03405453
0.03669496
0.03950139
0.04248091
0.04564066
0.04898776
0.05252937
0.05627258
0.06022443
0.06439189
0.06878178
0.07340079
0.07825545
0.08335206
0.08869668
0.09429509
0.10015280
0.10627493
0.11266626
0.11933115
0.12627353
0.13349685
0.14100407
0.14879760
0.15687930
0.16525045
0.17391169
0.18286306
0.19210390
0.20163290
0.21144802
0.22154655
0.23192503
0.24257927
0.25350434
0.26469457
0.27614355
0.28784414
0.29978845
0.31196789
0.32437313
0.33699420
0.34982041
0.36284046
0.37604242
0.38941375
0.40294139
0.41661172
0.43041067
0.44432372
0.45833593
0.47243203
0.48659643
0.50081329
0.51506654
0.52933999
0.54361729
0.55788208
0.57211798
0.58630865
0.60043785
0.61448951
0.62844775
0.64229694
0.65602175
0.66960721
0.68303872
0.69630213
0.70938376
0.72227044
0.73494958
0.74740914
0.75963772
0.77162457
0.78335960
0.79483342
0.80603739
0.81696356
0.82760479
0.83795467
0.84800759
0.85775872
0.86720402
0.87634027
0.88516503
0.89367666
0.90187432
0.90975797
0.91732833
0.92458689
0.93153593
0.93817845
0.94451818
0.95055958
0.95630781
0.96176869
0.96694871
0.97185500
0.97649530
0.98087796
0.98501189
0.98890659
0.99257206
0.99601886
0.99925803
1.00230106
1.00515986
1.00784660
1.01037347
1.01275218
1.01499316
1.01710421
1.01908868
1.02094356
1.02265909
1.02422247
1.02563511
1.02693086
1.02816602
1.02942645
1.03078639
1.03227713
1.03388906
1.03558688
1.03732612
1.03906295
1.04075823
1.04237871
1.04389690
1.04529052
1.04654172
1.04763643
1.04856373
1.04931535
1.04988526
1.05026943
1.05046555
1.05047290
1.05029231
1.04992608
1.04937810
1.04865396
1.04776132
1.04671033
1.04551431
1.04419075
1.04276247
1.04125918
1.03971899
1.03818987
1.03673020
1.03540786
1.03429697
1.03347207
1.03300060
1.03293549
1.03330935
1.03413088
1.03538375
1.03702834
1.03900682
1.04125097
1.04369081
1.04626159
1.04890787
1.05158491
1.05425821
1.05690202
1.05949765
1.06203174
1.06449487
1.06688047
1.06918393
1.07140204
1.07353256
1.07557393
1.07752516
1.07938572
1.08115555
1.08283517
1.08442573
1.08592919
1.08734848
1.08868768
1.08995217
1.09114880
1.09228599
1.09337375
1.09442364
1.09544856
1.09646241
1.09747962
1.09851445
1.09958009
1.10068762
1.10184488
1.10305531
1.10431687
1.10562131
1.10695387
1.10829370
1.10961515
1.11089007
1.11209124
1.11319681
1.11419582
1.11509450
1.11592320
1.11674354
1.11765426
1.11879107
1.12030397
1.12227187
1.12443909
1.12559496
1.12251943
1.10986791
1.08566665
1.05590075
1.02236014
0.97020594
0.85988020
0.67675191
0.49618643
0.35222374
0.24633145
0.17102120
0.11827748
0.08162167
0.05625287
0.03873789
0.02666309
0.01834646
0.01262171
0.00868256
0.00597266
0.00410862
0.00282648
0.00194455
0.00133789
0.00092054
0.00063340
0.00043583
0.00029988
0.00020632
0.00014194
0.00009763
0.00006714
0.00004616
0.00003173
0.00002180
0.00001497
0.00001028
0.00000705
0.00000484
0.00000332
0.00000227
0.00000156
0.00000106
0.00000073
0.00000050
0.00000034
0.00000023
0.00000016
0.00000011
0.00000007
0.00000005
0.00000003
0.00000002
0.00000002
0.00000001
0.00000001
0.00000000
0.00000000
0.00000000
0.00000000
0.00000000
0.00000000
0.00000000
0.00000000
0.00000000
0.00000000
0.00000000
0.00000000
0.00000000
0.00000000
0.00000000
0.00000000
0.00000000
0.00000000
0.00000000
0.00000000
0.00000000
0.00000000
0.00000000
0.00000000
0.00000000
0.00000000
0.00000000
0.00000000
0.00000000
0.00000000
0.00000000
0.00000000
0.00000000
0.00000000
0.00000000
0.00000000
0.00000000
0.00000000
0.00000000
0.00000000
0.00000000
0.00000000
0.00000000
0.00000000
0.00000000
0.00000000
0.00000000
0.00000000
0.00000000
0.00000000
0.00000000
0.00000000
0.00000000
0.00000000
0.00000000
0.00000000
0.00000000
0.00000000
0.00000000
0.00000000
0.00000000
0.00000000
0.00000000
0.00000000
0.00000000
0.00000000
0.00000000
0.00000000
0.00000000
0.00000000
0.00000000
0.00000000
0.00000000
0.00000000
0.00000000
0.00000000
0.00000000
0.00000000
0.00000000
0.00000000
0.00069275
0.00070247
0.00072200
0.00075152
0.00079133
0.00084179
0.00090340
0.00097673
0.00106246
0.00116137
0.00127437
0.00140246
0.00154675
0.00170850
0.00188908
0.00208996
0.00231280
0.00255935
0.00283152
0.00313138
0.00346114
0.00382318
0.00422003
0.00465440
0.00512918
0.00564743
0.00621240
0.00682753
0.00749643
0.00822294
0.00901108
0.00986507
0.01078933
0.01178849
0.01286738
0.01403104
0.01528468
0.01663375
0.01808385
0.01964080
0.02131058
0.02309935
0.02501344
0.02705933
0.02924362
0.03157307
0.03405453
0.03669496
0.03950139
0.04248091
0.04564066
0.04898776
0.05252937
0.05627258
0.06022443
0.06439189
0.06878178
0.07340079
0.07825545
0.08335206
0.08869667
0.09429509
0.10015280
0.10627493
0.11266626
0.11933115
0.12627353
0.13349685
0.14100407
0.14879759
0.15687930
0.16525044
0.17391169
0.18286305
0.19210389
0.20163289
0.21144801
0.22154654
0.23192502
0.24257925
0.25350432
0.26469455
0.27614353
0.28784411
0.29978842
0.31196785
0.32437309
0.33699415
0.34982036
0.36284040
0.37604235
0.38941367
0.40294130
0.41661162
0.43041056
0.44432360
0.45833579
0.47243188
0.48659626
0.50081310
0.51506634
0.52933976
0.54361705
0.55788181
0.57211769
0.58630833
0.60043750
0.61448913
0.62844734
0.64229650
0.65602128
0.66960670
0.68303817
0.69630155
0.70938314
0.72226979
0.73494889
0.74740842
0.75963697
0.77162378
0.78335877
0.79483257
0.80603651
0.81696267
0.82760389
0.83795377
0.84800669
0.85775783
0.86720316
0.87633945
0.88516427
0.89367599
0.90187376
0.90975754
0.91732806
0.92458683
0.93153611
0.93817891
0.94451898
0.95056077
0.95630945
0.96177083
0.96695141
0.97185830
0.97649924
0.98088255
0.98501713
0.98891241
0.99257838
0.99602554
0.99926492
1.00230806
1.00516704
1.00785445
1.01038330
1.01276672
1.01501734
1.01714573
1.01915748
1.02104808
1.02279529
1.02435642
1.02571543
1.02690897
1.02801480
1.02914951
1.03045003
1.03194653
1.03360248
1.03536024
1.03716005
1.03895000
1.04068835
1.04234205
1.04388496
1.04529644
1.04656023
1.04766356
1.04859652
1.04935155
1.04992312
1.05030745
1.05050230
1.05050687
1.05032170
1.04994865
1.04939094
1.04865332
1.04774227
1.04666643
1.04543728
1.04407007
1.04258514
1.04100972
1.03938009
1.03774389
1.03616196
1.03470843
1.03346765
1.03252683
1.03196581
1.03184728
1.03221004
1.03306494
1.03439303
1.03614662
1.03825511
1.04063584
1.04320649
1.04589422
1.04863992
1.05139846
1.05413691
1.05683193
1.05946737
1.06203223
1.06451910
1.06692301
1.06924066
1.07146983
1.07360906
1.07565738
1.07761425
1.07947949
1.08125332
1.08293643
1.08453012
1.08603645
1.08745839
1.08880003
1.09006677
1.09126540
1.09240428
1.09349332
1.09454393
1.09556888
1.09658190
1.09759722
1.09862892
1.09968998
1.10079133
1.10194067
1.10314131
1.10439111
1.10568161
1.10699769
1.10831765
1.10961419
1.11085604
1.11201037
1.11304578
1.11393531
1.11465916
1.11520573
1.11556971
1.11574415
1.11569997
1.11534101
1.11440708
1.11229709
1.10781339
1.09901899
1.08400237
1.06321573
1.03970438
1.01380791
0.97723260
0.90040517
0.71952465
0.52201677
0.36544337
0.25280973
0.17422005
0.11991146
0.08249694
0.05674648
0.03902983
0.02684264
0.01846018
0.01269523
0.00873074
0.00600452
0.00412981
0.00284062
0.00195401
0.00134423
0.00092479
0.00063625
0.00043774
0.00030115
0.00020717
0.00014251
0.00009801
0.00006739
0.00004633
0.00003184
0.00002188
0.00001502
0.00001031
0.00000708
0.00000485
0.00000333
0.00000228
0.00000156
0.00000107
0.00000073
0.00000050
0.00000034
0.00000023
0.00000016
0.00000011
0.00000007
0.00000005
0.00000003
0.00000002
0.00000002
0.00000001
0.00000001
0.00000000
0.00000000
0.00000000
0.00000000
0.00000000
0.00000000
0.00000000
0.00000000
0.00000000
0.00000000
0.00000000
0.00000000
0.00000000
0.00000000
0.00000000
0.00000000
0.00000000
0.00000000
0.00000000
0.00000000
0.00000000
0.00000000
0.00000000
0.00000000
0.00000000
0.00000000
0.00000000
0.00000000
0.00000000
0.00000000
0.00000000
0.00000000
0.00000000
0.00000000
0.00000000
0.00000000
0.00000000
0.00000000
0.00000000
0.00000000
0.00000000
0.00000000
0.00000000
0.00000000
0.00000000
0.00000000
0.00000000
0.00000000
0.00000000
0.00000000
0.00000000
0.00000000
0.00000000
0.00000000
0.00000000
0.00000000
0.00000000
0.00000000
0.00000000
0.00000000
0.00000000
0.00000000
0.00000000
0.00000000
0.00000000
0.00000000
0.00000000
0.00000000
0.00000000
0.00000000
0.00000000
0.00000000
0.00000000
0.00000000
0.00000000
0.00000000
0.00000000
0.00000000
0.00000000
0.00000000
0.00069275
0.00070247
0.00072200
0.00075152
0.00079133
0.00084179
0.00090340
0.00097673
0.00106246
0.00116137
0.00127437
0.00140246
0.00154675
0.00170850
0.00188908
0.00208996
0.00231280
0.00255935
0.00283152
0.00313138
0.00346114
0.00382318
0.00422003
0.00465440
0.00512918
0.00564743
0.00621240
0.00682753
0.00749643
0.00822294
0.00901108
0.00986507
0.01078933
0.01178849
0.01286738
0.01403104
0.01528468
0.01663375
0.01808385
0.01964080
0.02131058
0.02309935
0.02501344
0.02705933
0.02924362
0.03157307
0.03405453
0.03669496
0.03950139
0.04248091
0.04564066
0.04898776
0.05252937
0.05627258
0.06022443
0.06439189
0.06878177
0.07340079
0.07825545
0.08335206
0.08869667
0.09429509
0.10015279
0.10627493
0.11266626
0.11933115
0.12627353
0.13349685
0.14100406
0.14879759
0.15687929
0.16525044
0.17391168
0.18286304
0.19210388
0.20163287
0.21144800
0.22154652
0.23192500
0.24257923
0.25350429
0.26469452
0.27614349
0.28784407
0.29978837
0.31196779
0.32437303
0.33699408
0.34982028
0.36284031
0.37604225
0.38941356
0.40294117
0.41661148
0.43041040
0.44432341
0.45833559
0.47243165
0.48659601
0.50081283
0.51506604
0.52933943
0.54361668
0.55788141
0.57211725
0.58630785
0.60043698
0.61448857
0.62844673
0.64229584
0.65602057
0.66960594
0.68303736
0.69630068
0.70938222
0.72226881
0.73494786
0.74740733
0.75963583
0.77162259
0.78335754
0.79483130
0.80603520
0.81696134
0.82760253
0.83795240
0.84800533
0.85775649
0.86720186
0.87633822
0.88516312
0.89367496
0.90187288
0.90975686
0.91732762
0.92458669
0.93153633
0.93817956
0.94452014
0.95056253
0.95631188
0.96177403
0.96695547
0.97186331
0.97650526
0.98088962
0.98502525
0.98892153
0.99258836
0.99603618
0.99927594
1.00231916
1.00517807
1.00786566
1.01039592
1.01278393
1.01504569
1.01719710
1.01925134
1.02120836
1.02302650
1.02458678
1.02583996
1.02689120
1.02778106
1.02868487
1.02987248
1.03141168
1.03316109
1.03502577
1.03692397
1.03879570
1.04059778
1.04229919
1.04387679
1.04531288
1.04659374
1.04770858
1.04864899
1.04940845
1.04998212
1.05036654
1.05055957
1.05056024
1.05036871
1.04998617
1.04941494
1.04865850
1.04772163
1.04661083
1.04533478
1.04390529
1.04233865
1.04065779
1.03889516
1.03709662
1.03532553
1.03366528
1.03221715
1.03109018
1.03038511
1.03017999
1.03052315
1.03142964
1.03287752
1.03480663
1.03712425
1.03972205
1.04249670
1.04536302
1.04825748
1.05113584
1.05396869
1.05673706
1.05942902
1.06203725
1.06455733
1.06698669
1.06932388
1.07156812
1.07371904
1.07577652
1.07774067
1.07961180
1.08139048
1.08307770
1.08467495
1.08618439
1.08760910
1.08895319
1.09022203
1.09142235
1.09256240
1.09365197
1.09470228
1.09572587
1.09673624
1.09774739
1.09877312
1.09982621
1.10091741
1.10205432
1.10324023
1.10447306
1.10574443
1.10703918
1.10833526
1.10960423
1.11081232
1.11192180
1.11289247
1.11368249
1.11424766
1.11453789
1.11448867
1.11400510
1.11293451
1.11102350
1.10785753
1.10279778
1.09496975
1.08344418
1.06781706
1.04889667
1.02823976
1.00592758
0.97741927
0.92158190
0.75573655
0.54624931
0.37845931
0.25948484
0.17769246
0.12179396
0.08356911
0.05738594
0.03942578
0.02709465
0.01862364
0.01280258
0.00880181
0.00605181
0.00416138
0.00286173
0.00196815
0.00135370
0.00093113
0.00064050
0.00044059
0.00030306
0.00020845
0.00014336
0.00009858
0.00006778
0.00004659
0.00003201
0.00002199
0.00001510
0.00001036
0.00000711
0.00000488
0.00000334
0.00000229
0.00000157
0.00000107
0.00000073
0.00000050
0.00000034
0.00000023
0.00000016
0.00000011
0.00000007
0.00000005
0.00000003
0.00000002
0.00000002
0.00000001
0.00000001
0.00000000
0.00000000
0.00000000
0.00000000
0.00000000
0.00000000
0.00000000
0.00000000
0.00000000
0.00000000
0.00000000
0.00000000
0.00000000
0.00000000
0.00000000
0.00000000
0.00000000
0.00000000
0.00000000
0.00000000
0.00000000
0.00000000
0.00000000
0.00000000
0.00000000
0.00000000
0.00000000
0.00000000
0.00000000
0.00000000
0.00000000
0.00000000
0.00000000
0.00000000
0.00000000
0.00000000
0.00000000
0.00000000
0.00000000
0.00000000
0.00000000
0.00000000
0.00000000
0.00000000
0.00000000
0.00000000
0.00000000
0.00000000
0.00000000
0.00000000
0.00000000
0.00000000
0.00000000
0.00000000
0.00000000
0.00000000
0.00000000
0.00000000
0.00000000
0.00000000
0.00000000
0.00000000
0.00000000
0.00000000
0.00000000
0.00000000
0.00000000
0.00000000
0.00000000
0.00000000
0.00000000
0.00000000
0.00000000
0.00000000
0.00000000
0.00000000
0.00000000
0.00000000
0.00000000
0.00000000
0.00069275
0.00070247
0.00072200
0.00075152
0.00079133
0.00084179
0.00090340
0.00097673
0.00106246
0.00116137
0.00127437
0.00140246
0.00154675
0.00170850
0.00188908
0.00208996
0.00231280
0.00255935
0.00283152
0.00313138
0.00346114
0.00382318
0.00422003
0.00465440
0.00512918
0.00564743
0.00621240
0.00682753
0.00749643
0.00822294
0.00901108
0.00986507
0.01078933
0.01178849
0.01286738
0.01403104
0.01528468
0.01663375
0.01808385
0.01964080
0.02131058
0.02309935
0.02501344
0.02705933
0.02924362
0.03157307
0.03405453
0.03669496
0.03950139
0.04248091
0.04564066
0.04898776
0.05252937
0.05627258
0.06022443
0.06439188
0.06878177
0.07340079
0.07825545
0.08335206
0.08869667
0.09429509
0.10015279
0.10627492
0.11266625
0.11933114
0.12627352
0.13349684
0.14100405
0.14879758
0.15687928
0.16525043
0.17391167
0.18286303
0.19210386
0.20163285
0.21144797
0.22154650
0.23192497
0.24257920
0.25350425
0.26469447
0.27614344
0.28784401
0.29978831
0.31196772
0.32437295
0.33699399
0.34982017
0.36284019
0.37604211
0.38941341
0.40294100
0.41661129
0.43041019
0.44432317
0.45833532
0.47243135
0.48659568
0.50081246
0.51506563
0.52933898
0.54361619
0.55788088
0.57211666
0.58630721
0.60043629
0.61448782
0.62844592
0.64229496
0.65601963
0.66960493
0.68303628
0.69629952
0.70938099
0.72226751
0.73494649
0.74740589
0.75963431
0.77162101
0.78335589
0.79482960
0.80603345
0.81695954
0.82760071
0.83795056
0.84800349
0.85775468
0.86720010
0.87633653
0.88516155
0.89367353
0.90187166
0.90975589
0.91732697
0.92458643
0.93153655
0.93818036
0.94452161
0.95056479
0.95631507
0.96177828
0.96696091
0.97187007
0.97651346
0.98089936
0.98503656
0.98893438
0.99260261
0.99605156
0.99929201
1.00233535
1.00519372
1.00788028
1.01040971
1.01279886
1.01506786
1.01724113
1.01934711
1.02139917
1.02334481
1.02492550
1.02596954
1.02682743
1.02738947
1.02792775
1.02890180
1.03061540
1.03256225
1.03460037
1.03664007
1.03862144
1.04050487
1.04226487
1.04388374
1.04534837
1.04664856
1.04777618
1.04872469
1.04948886
1.05006462
1.05044891
1.05063967
1.05063567
1.05043657
1.05004276
1.04945539
1.04867637
1.04770843
1.04655527
1.04522199
1.04371571
1.04204691
1.04023162
1.03829520
1.03627821
1.03424437
1.03228862
1.03053824
1.02913853
1.02822304
1.02789035
1.02820114
1.02917761
1.03079818
1.03298614
1.03561265
1.03852499
1.04158643
1.04469560
1.04778626
1.05081864
1.05377040
1.05662974
1.05939097
1.06205182
1.06461183
1.06707145
1.06943157
1.07169316
1.07385723
1.07592468
1.07789642
1.07977335
1.08155650
1.08324719
1.08484713
1.08635867
1.08778495
1.08913011
1.09039948
1.09159973
1.09273896
1.09382677
1.09487418
1.09589345
1.09689781
1.09790095
1.09891641
1.09995676
1.10103261
1.10215161
1.10331725
1.10452784
1.10577562
1.10704615
1.10831809
1.10956340
1.11074799
1.11183243
1.11277243
1.11351839
1.11401283
1.11418448
1.11393712
1.11313118
1.11155689
1.10890005
1.10470999
1.09839528
1.08930175
1.07693835
1.06134036
1.04327711
1.02377046
1.00291035
0.97747965
0.92875287
0.77381970
0.55992986
0.38669097
0.26425962
0.18053019
0.12354215
0.08467941
0.05810626
0.03989941
0.02740856
0.01883264
0.01294210
0.00889508
0.00611421
0.00420316
0.00288972
0.00198690
0.00136626
0.00093956
0.00064614
0.00044437
0.00030559
0.00021015
0.00014450
0.00009934
0.00006828
0.00004692
0.00003223
0.00002214
0.00001520
0.00001043
0.00000715
0.00000490
0.00000336
0.00000230
0.00000158
0.00000108
0.00000074
0.00000050
0.00000034
0.00000023
0.00000016
0.00000011
0.00000007
0.00000005
0.00000003
0.00000002
0.00000002
0.00000001
0.00000001
0.00000000
0.00000000
0.00000000
0.00000000
0.00000000
0.00000000
0.00000000
0.00000000
0.00000000
0.00000000
0.00000000
0.00000000
0.00000000
0.00000000
0.00000000
0.00000000
0.00000000
0.00000000
0.00000000
0.00000000
0.00000000
0.00000000
0.00000000
0.00000000
0.00000000
0.00000000
0.00000000
0.00000000
0.00000000
0.00000000
0.00000000
0.00000000
0.00000000
0.00000000
0.00000000
0.00000000
0.00000000
0.00000000
0.00000000
0.00000000
0.00000000
0.00000000
0.00000000
0.00000000
0.00000000
0.00000000
0.00000000
0.00000000
0.00000000
0.00000000
0.00000000
0.00000000
0.00000000
0.00000000
0.00000000
0.00000000
0.00000000
0.00000000
0.00000000
0.00000000
0.00000000
0.00000000
0.00000000
0.00000000
0.00000000
0.00000000
0.00000000
0.00000000
0.00000000
0.00000000
0.00000000
0.00000000
0.00000000
0.00000000
0.00000000
0.00000000
0.00000000
0.00000000
0.00000000
0.00000000
0.00069275
0.00070247
0.00072200
0.00075152
0.00079133
0.00084179
0.00090340
0.00097673
0.00106246
0.00116137
0.00127437
0.00140246
0.00154675
0.00170850
0.00188908
0.00208996
0.00231280
0.00255935
0.00283152
0.00313138
0.00346114
0.00382318
0.00422003
0.00465440
0.00512918
0.00564743
0.00621240
0.00682753
0.00749643
0.00822294
0.00901108
0.00986507
0.01078933
0.01178849
0.01286738
0.01403104
0.01528468
0.01663375
0.01808385
0.01964080
0.02131058
0.02309935
0.02501344
0.02705933
0.02924362
0.03157307
0.03405453
0.03669496
0.03950139
0.04248091
0.04564066
0.04898776
0.05252937
0.05627258
0.06022443
0.06439188
0.06878177
0.07340079
0.07825545
0.08335205
0.08869667
0.09429509
0.10015279
0.10627492
0.11266625
0.11933114
0.12627352
0.13349683
0.14100405
0.14879757
0.15687927
0.16525041
0.17391165
0.18286301
0.19210384
0.20163283
0.21144795
0.22154647
0.23192493
0.24257915
0.25350421
0.26469442
0.27614338
0.28784394
0.29978823
0.31196763
0.32437284
0.33699387
0.34982004
0.36284004
0.37604194
0.38941321
0.40294078
0.41661105
0.43040992
0.44432287
0.45833499
0.47243098
0.48659527
0.50081201
0.51506513
0.52933843
0.54361559
0.55788021
0.57211594
0.58630642
0.60043543
0.61448688
0.62844491
0.64229387
0.65601845
0.66960367
0.68303493
0.69629809
0.70937946
0.72226589
0.73494477
0.74740408
0.75963242
0.77161903
0.78335383
0.79482746
0.80603125
0.81695729
0.82759842
0.83794825
0.84800117
0.85775238
0.86719785
0.87633437
0.88515952
0.89367168
0.90187005
0.90975458
0.91732606
0.92458600
0.93153670
0.93818122
0.94452332
0.95056750
0.95631895
0.96178352
0.96696771
0.97187863
0.97652397
0.98091198
0.98505142
0.98895151
0.99262193
0.99607277
0.99931457
1.00235836
1.00521586
1.00789981
1.01042464
1.01280769
1.01507131
1.01724662
1.01937829
1.02152227
1.02362043
1.02489999
1.02548022
1.02604325
1.02640589
1.02682622
1.02767737
1.02956882
1.03183385
1.03412609
1.03634784
1.03845977
1.04043509
1.04225836
1.04392008
1.04541329
1.04673221
1.04787182
1.04882768
1.04959594
1.05017332
1.05055713
1.05074530
1.05073631
1.05052917
1.05012335
1.04951869
1.04871536
1.04771372
1.04651435
1.04511810
1.04352640
1.04174201
1.03977092
1.03762630
1.03533645
1.03295862
1.03059816
1.02842206
1.02663810
1.02543264
1.02492203
1.02518040
1.02624067
1.02809505
1.03065299
1.03372352
1.03707507
1.04051834
1.04393531
1.04726408
1.05047705
1.05356471
1.05652612
1.05936401
1.06208241
1.06468554
1.06717736
1.06956135
1.07184050
1.07401730
1.07609383
1.07807185
1.07995295
1.08173866
1.08343066
1.08503093
1.08654198
1.08796704
1.08931026
1.09057693
1.09177360
1.09290823
1.09399018
1.09503021
1.09604030
1.09703333
1.09802271
1.09902169
1.10004267
1.10109625
1.10219025
1.10332866
1.10451063
1.10572966
1.10697300
1.10822143
1.10944939
1.11062551
1.11171321
1.11267098
1.11345187
1.11400100
1.11424997
1.11410649
1.11343734
1.11204314
1.10962531
1.10575167
1.09984227
1.09122581
1.07933872
1.06409090
1.04617974
1.02668434
1.00571643
0.97962542
0.92875233
0.77082465
0.55951534
0.38813037
0.26623851
0.18236576
0.12501241
0.08577402
0.05888824
0.04044429
0.02778239
0.01908662
0.01311361
0.00901047
0.00619168
0.00425511
0.00292453
0.00201023
0.00138189
0.00095002
0.00065315
0.00044906
0.00030874
0.00021225
0.00014590
0.00010028
0.00006891
0.00004734
0.00003251
0.00002232
0.00001532
0.00001051
0.00000721
0.00000494
0.00000338
0.00000232
0.00000159
0.00000108
0.00000074
0.00000051
0.00000035
0.00000024
0.00000016
0.00000011
0.00000007
0.00000005
0.00000003
0.00000002
0.00000002
0.00000001
0.00000001
0.00000000
0.00000000
0.00000000
0.00000000
0.00000000
0.00000000
0.00000000
0.00000000
0.00000000
0.00000000
0.00000000
0.00000000
0.00000000
0.00000000
0.00000000
0.00000000
0.00000000
0.00000000
0.00000000
0.00000000
0.00000000
0.00000000
0.00000000
0.00000000
0.00000000
0.00000000
0.00000000
0.00000000
0.00000000
0.00000000
0.00000000
0.00000000
0.00000000
0.00000000
0.00000000
0.00000000
0.00000000
0.00000000
0.00000000
0.00000000
0.00000000
0.00000000
0.00000000
0.00000000
0.00000000
0.00000000
0.00000000
0.00000000
0.00000000
0.00000000
0.00000000
0.00000000
0.00000000
0.00000000
0.00000000
0.00000000
0.00000000
0.00000000
0.00000000
0.00000000
0.00000000
0.00000000
0.00000000
0.00000000
0.00000000
0.00000000
0.00000000
0.00000000
0.00000000
0.00000000
0.00000000
0.00000000
0.00000000
0.00000000
0.00000000
0.00000000
0.00000000
0.00000000
0.00000000
0.00000000
0.00069275
0.00070247
0.00072200
0.00075152
0.00079133
0.00084179
0.00090340
0.00097673
0.00106246
0.00116137
0.00127437
0.00140246
0.00154675
0.00170850
0.00188908
0.00208996
0.00231280
0.00255935
0.00283152
0.00313138
0.00346114
0.00382318
0.00422003
0.00465440
0.00512918
0.00564743
0.00621240
0.00682753
0.00749643
0.00822294
0.00901108
0.00986507
0.01078933
0.01178849
0.01286738
0.01403104
0.01528468
0.01663375
0.01808385
0.01964080
0.02131058
0.02309935
0.02501344
0.02705933
0.02924362
0.03157307
0.03405453
0.03669496
0.03950139
0.04248091
0.04564066
0.04898776
0.05252937
0.05627258
0.06022443
0.06439188
0.06878177
0.07340079
0.07825545
0.08335205
0.08869667
0.09429508
0.10015279
0.10627492
0.11266624
0.11933113
0.12627351
0.13349683
0.14100404
0.14879756
0.15687926
0.16525040
0.17391164
0.18286299
0.19210382
0.20163280
0.21144792
0.22154643
0.23192489
0.24257911
0.25350415
0.26469436
0.27614331
0.28784386
0.29978813
0.31196752
0.32437272
0.33699373
0.34981988
0.36283986
0.37604174
0.38941299
0.40294053
0.41661076
0.43040960
0.44432252
0.45833459
0.47243054
0.48659478
0.50081147
0.51506454
0.52933778
0.54361487
0.55787942
0.57211507
0.58630548
0.60043440
0.61448577
0.62844370
0.64229257
0.65601705
0.66960216
0.68303332
0.69629637
0.70937763
0.72226395
0.73494272
0.74740191
0.75963014
0.77161665
0.78335135
0.79482489
0.80602860
0.81695456
0.82759564
0.83794543
0.84799835
0.85774957
0.86719509
0.87633170
0.88515699
0.89366936
0.90186799
0.90975288
0.91732480
0.92458530
0.93153669
0.93818205
0.94452517
0.95057056
0.95632344
0.96178969
0.96697583
0.97188898
0.97653685
0.98092768
0.98507019
0.98897352
0.99264723
0.99610117
0.99934553
1.00239078
1.00524783
1.00792821
1.01044463
1.01281223
1.01505102
1.01719106
1.01927430
1.02131194
1.02312388
1.02398959
1.02456897
1.02501612
1.02537444
1.02576819
1.02665370
1.02850440
1.03108742
1.03368171
1.03610605
1.03835448
1.04042009
1.04230219
1.04400168
1.04551877
1.04685249
1.04800102
1.04896199
1.04973281
1.05031087
1.05069376
1.05087927
1.05086547
1.05065067
1.05023332
1.04961188
1.04878469
1.04774974
1.04650437
1.04504501
1.04336681
1.04146343
1.03932752
1.03695339
1.03434524
1.03153739
1.02863316
1.02585849
1.02354927
1.02196439
1.02122544
1.02139988
1.02253559
1.02468089
1.02776426
1.03147655
1.03543199
1.03936349
1.04314672
1.04674263
1.05014974
1.05337936
1.05644538
1.05936073
1.06213651
1.06478196
1.06730466
1.06971079
1.07200536
1.07419241
1.07627522
1.07825645
1.08013839
1.08192309
1.08361261
1.08520918
1.08671547
1.08813480
1.08947132
1.09073024
1.09191799
1.09304231
1.09411233
1.09513849
1.09613244
1.09710673
1.09807443
1.09904855
1.10004134
1.10106347
1.10212313
1.10322503
1.10436959
1.10555216
1.10676254
1.10798494
1.10919820
1.11037652
1.11149043
1.11250771
1.11339397
1.11411198
1.11461910
1.11486102
1.11475989
1.11419299
1.11295546
1.11070033
1.10685099
1.10052616
1.09059390
1.07617908
1.05771296
1.03691826
1.01406452
0.98321404
0.91987331
0.74956894
0.54762458
0.38434299
0.26622173
0.18359261
0.12639464
0.08694355
0.05977457
0.04108025
0.02822516
0.01938957
0.01331879
0.00914863
0.00628441
0.00431724
0.00296613
0.00203807
0.00140052
0.00096249
0.00066150
0.00045464
0.00031247
0.00021474
0.00014757
0.00010139
0.00006965
0.00004783
0.00003284
0.00002254
0.00001547
0.00001061
0.00000727
0.00000498
0.00000341
0.00000234
0.00000160
0.00000109
0.00000075
0.00000051
0.00000035
0.00000024
0.00000016
0.00000011
0.00000007
0.00000005
0.00000003
0.00000002
0.00000002
0.00000001
0.00000001
0.00000000
0.00000000
0.00000000