# vtk DataFile Version 3.0
Concentration output
ASCII
DATASET STRUCTURED_POINTS
DIMENSIONS 398 98 1
ORIGIN 0 0 0
SPACING 0.03 0.03 1.0
POINT_DATA 39004
SCALARS Variable float 1
LOOKUP_TABLE default
0.00000000
0.00000000
0.00000000
0.00000000
0.00000000
0.00000000
0.00000000
0.00000000
0.00000000
0.00000000
0.00000000
0.00000000
0.00000000
0.00000000
0.00000000
0.00000000
0.00000001
0.00000001
0.00000001
0.00000002
0.00000003
0.00000004
0.00000006
0.00000009
0.00000013
0.00000019
0.00000026
0.00000037
0.00000052
0.00000073
0.00000102
0.00000141
0.00000195
0.00000268
0.00000367
0.00000501
0.00000681
0.00000922
0.00001242
0.00001667
0.00002228
0.00002965
0.00003929
0.00005185
0.00006814
0.00008919
0.00011624
0.00015086
0.00019499
0.00025097
0.00032169
0.00041063
0.00052197
0.00066077
0.00083301
0.00104581
0.00130755
0.00162807
0.00201882
0.00249307
0.00306611
0.00375543
0.00458094
0.00556515
0.00673334
0.00811372
0.00973754
0.01163922
0.01385636
0.01642973
0.01940322
0.02282368
0.02674068
0.03120624
0.03627438
0.04200065
0.04844151
0.05565368
0.06369331
0.07261515
0.08247159
0.09331171
0.10518017
0.11811624
0.13215268
0.14731476
0.16361925
0.18107359
0.19967504
0.21941010
0.24025398
0.26217031
0.28511104
0.30901654
0.33381590
0.35942751
0.38575978
0.41271214
0.44017617
0.46803694
0.49617446
0.52446530
0.55278416
0.58100566
0.60900596
0.63666444
0.66386528
0.69049893
0.71646345
0.74166564
0.76602204
0.78945971
0.81191674
0.83334264
0.85369838
0.87295640
0.89110023
0.90812408
0.92403219
0.93883807
0.95256367
0.96523838
0.97689806
0.98758400
0.99734187
1.00622071
1.01427193
1.02154833
1.02810323
1.03398963
1.03925943
1.04396272
1.04814704
1.05185623
1.05512821
1.05798888
1.06043222
1.06234708
1.06325855
1.06139758
1.05054468
1.01269631
0.91625402
0.73884061
0.55631711
0.40773145
0.29561575
0.21323179
0.15331887
0.10996292
0.07868438
0.05617432
0.04001145
0.02843219
0.02015566
0.01425363
0.01005488
0.00707512
0.00496569
0.00347614
0.00242701
0.00169000
0.00117362
0.00081280
0.00056135
0.00038660
0.00026550
0.00018181
0.00012415
0.00008452
0.00005738
0.00003883
0.00002620
0.00001763
0.00001182
0.00000791
0.00000527
0.00000350
0.00000232
0.00000153
0.00000101
0.00000066
0.00000043
0.00000028
0.00000018
0.00000012
0.00000008
0.00000005
0.00000003
0.00000002
0.00000001
0.00000001
0.00000001
0.00000000
0.00000000
0.00000000
0.00000000
0.00000000
0.00000000
0.00000000
0.00000000
0.00000000
0.00000000
0.00000000
0.00000000
0.00000000
0.00000000
0.00000000
0.00000000
0.00000000
0.00000000
0.00000000
0.00000000
0.00000000
0.00000000
0.00000000
0.00000000
0.00000000
0.00000000
0.00000000
0.00000000
0.00000000
0.00000000
0.00000000
0.00000000
0.00000000
0.00000000
0.00000000
0.00000000
0.00000000
0.00000000
0.00000000
0.00000000
0.00000000
0.00000000
0.00000000
0.00000000
0.00000000
0.00000000
0.00000000
0.00000000
0.00000000
0.00000000
0.00000000
0.00000000
0.00000000
0.00000000
0.00000000
0.00000000
0.00000000
0.00000000
0.00000000
0.00000000
0.00000000
0.00000000
0.00000000
0.00000000
0.00000000
0.00000000
0.00000000
0.00000000
0.00000000
0.00000000
0.00000000
0.00000000
0.00000000
0.00000000
0.00000000
0.00000000
0.00000000
0.00000000
0.00000000
0.00000000
0.00000000
0.00000000
0.00000000
0.00000000
0.00000000
0.00000000
0.00000000
0.00000000
0.00000000
0.00000000
0.00000000
0.00000000
0.00000000
0.00000000
0.00000000
0.00000000
0.00000000
0.00000000
0.00000000
0.00000000
0.00000000
0.00000000
0.00000000
0.00000000
0.00000000
0.00000000
0.00000000
0.00000000
0.00000000
0.00000000
0.00000000
0.00000000
0.00000000
0.00000000
0.00000000
0.00000000
0.00000000
0.00000000
0.00000000
0.00000000
0.00000000
0.00000000
0.00000000
0.00000000
0.00000000
0.00000000
0.00000000
0.00000000
0.00000000
0.00000000
0.00000000
0.00000000
0.00000000
0.00000000
0.00000000
0.00000000
0.00000000
0.00000000
0.00000000
0.00000000
0.00000000
0.00000000
0.00000000
0.00000000
0.00000000
0.00000000
0.00000000
0.00000000
0.00000000
0.00000000
0.00000000
0.00000000
0.00000000
0.00000000
0.00000000
0.00000000
0.00000000
0.00000000
0.00000000
0.00000000
0.00000000
0.00000000
0.00000000
0.00000000
0.00000000
0.00000000
0.00000000
0.00000000
0.00000000
0.00000000
0.00000000
0.00000000
0.00000000
0.00000000
0.00000000
0.00000000
0.00000000
0.00000000
0.00000000
0.00000000
0.00000000
0.00000000
0.00000000
0.00000000
0.00000000
0.00000000
0.00000000
0.00000000
0.00000000
0.00000000
0.00000000
0.00000000
0.00000000
0.00000000
0.00000000
0.00000000
0.00000000
0.00000000
0.00000000
0.00000000
0.00000000
0.00000000
0.00000000
0.00000000
0.00000000
0.00000000
0.00000000
0.00000000
0.00000000
0.00000000
0.00000000
0.00000000
0.00000000
0.00000000
0.00000000
0.00000000
0.00000000
0.00000000
0.00000000
0.00000000
0.00000000
0.00000001
0.00000001
0.00000001
0.00000002
0.00000003
0.00000004
0.00000006
0.00000009
0.00000013
0.00000019
0.00000026
0.00000037
0.00000052
0.00000073
0.00000102
0.00000141
0.00000195
0.00000268
0.00000367
0.00000501
0.00000681
0.00000922
0.00001242
0.00001667
0.00002228
0.00002965
0.00003929
0.00005185
0.00006814
0.00008919
0.00011624
0.00015086
0.00019499
0.00025097
0.00032169
0.00041063
0.00052197
0.00066077
0.00083301
0.00104581
0.00130755
0.00162807
0.00201882
0.00249307
0.00306611
0.00375543
0.00458094
0.00556516
0.00673334
0.00811372
0.00973754
0.01163922
0.01385636
0.01642973
0.01940322
0.02282368
0.02674068
0.03120624
0.03627438
0.04200065
0.04844151
0.05565368
0.06369331
0.07261515
0.08247159
0.09331171
0.10518017
0.11811624
0.13215268
0.14731476
0.16361925
0.18107359
0.19967504
0.21941010
0.24025397
0.26217031
0.28511104
0.30901653
0.33381589
0.35942750
0.38575977
0.41271213
0.44017616
0.46803692
0.49617445
0.52446528
0.55278414
0.58100564
0.60900594
0.63666441
0.66386525
0.69049891
0.71646343
0.74166562
0.76602203
0.78945970
0.81191675
0.83334265
0.85369842
0.87295647
0.89110035
0.90812425
0.92403243
0.93883842
0.95256415
0.96523902
0.97689892
0.98758515
0.99734341
1.00622275
1.01427464
1.02155192
1.02810799
1.03399597
1.03926790
1.04397408
1.04816231
1.05187681
1.05515601
1.05802636
1.06048249
1.06241504
1.06334708
1.06148929
1.05055074
1.01255894
0.91562786
0.73818822
0.55589199
0.40747981
0.29547285
0.21315186
0.15327479
0.10993848
0.07867093
0.05616692
0.04000737
0.02842994
0.02015442
0.01425294
0.01005450
0.00707491
0.00496557
0.00347608
0.00242698
0.00168998
0.00117361
0.00081279
0.00056134
0.00038660
0.00026550
0.00018181
0.00012415
0.00008452
0.00005738
0.00003883
0.00002620
0.00001763
0.00001182
0.00000791
0.00000527
0.00000350
0.00000232
0.00000153
0.00000101
0.00000066
0.00000043
0.00000028
0.00000018
0.00000012
0.00000008
0.00000005
0.00000003
0.00000002
0.00000001
0.00000001
0.00000001
0.00000000
0.00000000
0.00000000
0.00000000
0.00000000
0.00000000
0.00000000
0.00000000
0.00000000
0.00000000
0.00000000
0.00000000
0.00000000
0.00000000
0.00000000
0.00000000
0.00000000
0.00000000
0.00000000
0.00000000
0.00000000
0.00000000
0.00000000
0.00000000
0.00000000
0.00000000
0.00000000
0.00000000
0.00000000
0.00000000
0.00000000
0.00000000
0.00000000
0.00000000
0.00000000
0.00000000
0.00000000
0.00000000
0.00000000
0.00000000
0.00000000
0.00000000
0.00000000
0.00000000
0.00000000
0.00000000
0.00000000
0.00000000
0.00000000
0.00000000
0.00000000
0.00000000
0.00000000
0.00000000
0.00000000
0.00000000
0.00000000
0.00000000
0.00000000
0.00000000
0.00000000
0.00000000
0.00000000
0.00000000
0.00000000
0.00000000
0.00000000
0.00000000
0.00000000
0.00000000
0.00000000
0.00000000
0.00000000
0.00000000
0.00000000
0.00000000
0.00000000
0.00000000
0.00000000
0.00000000
0.00000000
0.00000000
0.00000000
0.00000000
0.00000000
0.00000000
0.00000000
0.00000000
0.00000000
0.00000000
0.00000000
0.00000000
0.00000000
0.00000000
0.00000000
0.00000000
0.00000000
0.00000000
0.00000000
0.00000000
0.00000000
0.00000000
0.00000000
0.00000000
0.00000000
0.00000000
0.00000000
0.00000000
0.00000000
0.00000000
0.00000000
0.00000000
0.00000000
0.00000000
0.00000000
0.00000000
0.00000000
0.00000000
0.00000000
0.00000000
0.00000000
0.00000000
0.00000000
0.00000000
0.00000000
0.00000000
0.00000000
0.00000000
0.00000000
0.00000000
0.00000000
0.00000000
0.00000000
0.00000000
0.00000000
0.00000000
0.00000000
0.00000000
0.00000000
0.00000000
0.00000000
0.00000000
0.00000000
0.00000000
0.00000000
0.00000000
0.00000000
0.00000000
0.00000000
0.00000000
0.00000000
0.00000000
0.00000000
0.00000000
0.00000000
0.00000000
0.00000000
0.00000000
0.00000000
0.00000000
0.00000000
0.00000000
0.00000000
0.00000000
0.00000000
0.00000000
0.00000000
0.00000000
0.00000000
0.00000000
0.00000000
0.00000000
0.00000000
0.00000000
0.00000000
0.00000000
0.00000000
0.00000000
0.00000000
0.00000000
0.00000000
0.00000000
0.00000000
0.00000000
0.00000000
0.00000000
0.00000000
0.00000000
0.00000000
0.00000000
0.00000000
0.00000000
0.00000000
0.00000000
0.00000000
0.00000000
0.00000000
0.00000000
0.00000000
0.00000000
0.00000000
0.00000000
0.00000000
0.00000000
0.00000000
0.00000000
0.00000000
0.00000000
0.00000000
0.00000000
0.00000000
0.00000000
0.00000000
0.00000000
0.00000000
0.00000000
0.00000000
0.00000000
0.00000000
0.00000000
0.00000000
0.00000001
0.00000001
0.00000001
0.00000002
0.00000003
0.00000004
0.00000006
0.00000009
0.00000013
0.00000019
0.00000026
0.00000037
0.00000052
0.00000073
0.00000102
0.00000141
0.00000195
0.00000268
0.00000367
0.00000501
0.00000681
0.00000922
0.00001242
0.00001667
0.00002228
0.00002965
0.00003929
0.00005185
0.00006814
0.00008919
0.00011624
0.00015086
0.00019499
0.00025097
0.00032169
0.00041063
0.00052197
0.00066077
0.00083301
0.00104581
0.00130755
0.00162807
0.00201882
0.00249307
0.00306611
0.00375543
0.00458094
0.00556516
0.00673334
0.00811372
0.00973754
0.01163922
0.01385636
0.01642973
0.01940322
0.02282368
0.02674069
0.03120625
0.03627439
0.04200065
0.04844152
0.05565368
0.06369331
0.07261515
0.08247159
0.09331171
0.10518017
0.11811624
0.13215268
0.14731476
0.16361925
0.18107358
0.19967504
0.21941009
0.24025397
0.26217030
0.28511103
0.30901652
0.33381588
0.35942748
0.38575975
0.41271211
0.44017613
0.46803690
0.49617442
0.52446525
0.55278411
0.58100560
0.60900589
0.63666437
0.66386520
0.69049886
0.71646338
0.74166557
0.76602199
0.78945968
0.81191675
0.83334268
0.85369850
0.87295661
0.89110056
0.90812457
0.92403290
0.93883907
0.95256504
0.96524023
0.97690055
0.98758733
0.99734630
1.00622659
1.01427971
1.02155864
1.02811691
1.03400784
1.03928374
1.04399530
1.04819085
1.05191533
1.05520810
1.05809695
1.06057811
1.06254485
1.06351045
1.06164550
1.05065392
1.01213204
0.91469806
0.73712275
0.55510285
0.40699490
0.29520135
0.21300108
0.15319170
0.10989273
0.07864575
0.05615305
0.03999971
0.02842571
0.02015207
0.01425163
0.01005377
0.00707451
0.00496535
0.00347595
0.00242691
0.00168994
0.00117359
0.00081278
0.00056134
0.00038660
0.00026550
0.00018181
0.00012415
0.00008452
0.00005738
0.00003883
0.00002620
0.00001763
0.00001182
0.00000791
0.00000527
0.00000350
0.00000232
0.00000153
0.00000101
0.00000066
0.00000043
0.00000028
0.00000018
0.00000012
0.00000008
0.00000005
0.00000003
0.00000002
0.00000001
0.00000001
0.00000001
0.00000000
0.00000000
0.00000000
0.00000000
0.00000000
0.00000000
0.00000000
0.00000000
0.00000000
0.00000000
0.00000000
0.00000000
0.00000000
0.00000000
0.00000000
0.00000000
0.00000000
0.00000000
0.00000000
0.00000000
0.00000000
0.00000000
0.00000000
0.00000000
0.00000000
0.00000000
0.00000000
0.00000000
0.00000000
0.00000000
0.00000000
0.00000000
0.00000000
0.00000000
0.00000000
0.00000000
0.00000000
0.00000000
0.00000000
0.00000000
0.00000000
0.00000000
0.00000000
0.00000000
0.00000000
0.00000000
0.00000000
0.00000000
0.00000000
0.00000000
0.00000000
0.00000000
0.00000000
0.00000000
0.00000000
0.00000000
0.00000000
0.00000000
0.00000000
0.00000000
0.00000000
0.00000000
0.00000000
0.00000000
0.00000000
0.00000000
0.00000000
0.00000000
0.00000000
0.00000000
0.00000000
0.00000000
0.00000000
0.00000000
0.00000000
0.00000000
0.00000000
0.00000000
0.00000000
0.00000000
0.00000000
0.00000000
0.00000000
0.00000000
0.00000000
0.00000000
0.00000000
0.00000000
0.00000000
0.00000000
0.00000000
0.00000000
0.00000000
0.00000000
0.00000000
0.00000000
0.00000000
0.00000000
0.00000000
0.00000000
0.00000000
0.00000000
0.00000000
0.00000000
0.00000000
0.00000000
0.00000000
0.00000000
0.00000000
0.00000000
0.00000000
0.00000000
0.00000000
0.00000000
0.00000000
0.00000000
0.00000000
0.00000000
0.00000000
0.00000000
0.00000000
0.00000000
0.00000000
0.00000000
0.00000000
0.00000000
0.00000000
0.00000000
0.00000000
0.00000000
0.00000000
0.00000000
0.00000000
0.00000000
0.00000000
0.00000000
0.00000000
0.00000000
0.00000000
0.00000000
0.00000000
0.00000000
0.00000000
0.00000000
0.00000000
0.00000000
0.00000000
0.00000000
0.00000000
0.00000000
0.00000000
0.00000000
0.00000000
0.00000000
0.00000000
0.00000000
0.00000000
0.00000000
0.00000000
0.00000000
0.00000000
0.00000000
0.00000000
0.00000000
0.00000000
0.00000000
0.00000000
0.00000000
0.00000000
0.00000000
0.00000000
0.00000000
0.00000000
0.00000000
0.00000000
0.00000000
0.00000000
0.00000000
0.00000000
0.00000000
0.00000000
0.00000000
0.00000000
0.00000000
0.00000000
0.00000000
0.00000000
0.00000000
0.00000000
0.00000000
0.00000000
0.00000000
0.00000000
0.00000000
0.00000000
0.00000000
0.00000000
0.00000000
0.00000000
0.00000000
0.00000000
0.00000000
0.00000000
0.00000000
0.00000000
0.00000000
0.00000000
0.00000000
0.00000000
0.00000000
0.00000000
0.00000000
0.00000000
0.00000000
0.00000000
0.00000000
0.00000000
0.00000000
0.00000000
0.00000000
0.00000000
0.00000001
0.00000001
0.00000001
0.00000002
0.00000003
0.00000004
0.00000006
0.00000009
0.00000013
0.00000019
0.00000026
0.00000037
0.00000052
0.00000073
0.00000102
0.00000141
0.00000195
0.00000268
0.00000367
0.00000501
0.00000681
0.00000922
0.00001242
0.00001667
0.00002228
0.00002965
0.00003929
0.00005185
0.00006814
0.00008919
0.00011624
0.00015086
0.00019499
0.00025097
0.00032169
0.00041063
0.00052197
0.00066077
0.00083301
0.00104581
0.00130755
0.00162807
0.00201882
0.00249307
0.00306611
0.00375543
0.00458094
0.00556516
0.00673335
0.00811372
0.00973754
0.01163922
0.01385636
0.01642973
0.01940322
0.02282368
0.02674069
0.03120625
0.03627439
0.04200065
0.04844152
0.05565368
0.06369331
0.07261515
0.08247159
0.09331171
0.10518017
0.11811624
0.13215268
0.14731475
0.16361925
0.18107358
0.19967503
0.21941009
0.24025396
0.26217029
0.28511102
0.30901651
0.33381586
0.35942746
0.38575972
0.41271207
0.44017610
0.46803685
0.49617437
0.52446519
0.55278405
0.58100554
0.60900582
0.63666429
0.66386513
0.69049878
0.71646330
0.74166550
0.76602193
0.78945964
0.81191673
0.83334271
0.85369858
0.87295677
0.89110083
0.90812499
0.92403351
0.93883993
0.95256623
0.96524186
0.97690275
0.98759026
0.99735019
1.00623174
1.01428653
1.02156765
1.02812886
1.03402370
1.03930488
1.04402360
1.04822890
1.05196670
1.05527773
1.05819140
1.06070614
1.06271253
1.06371899
1.06185966
1.05072177
1.01168115
0.91323762
0.73549858
0.55401213
0.40635250
0.29483785
0.21279949
0.15308042
0.10983145
0.07861199
0.05613442
0.03998942
0.02842001
0.02014891
0.01424987
0.01005279
0.00707396
0.00496504
0.00347578
0.00242681
0.00168989
0.00117356
0.00081276
0.00056133
0.00038659
0.00026550
0.00018181
0.00012414
0.00008452
0.00005738
0.00003883
0.00002620
0.00001763
0.00001182
0.00000791
0.00000527
0.00000350
0.00000232
0.00000153
0.00000101
0.00000066
0.00000043
0.00000028
0.00000018
0.00000012
0.00000008
0.00000005
0.00000003
0.00000002
0.00000001
0.00000001
0.00000001
0.00000000
0.00000000
0.00000000
0.00000000
0.00000000
0.00000000
0.00000000
0.00000000
0.00000000
0.00000000
0.00000000
0.00000000
0.00000000
0.00000000
0.00000000
0.00000000
0.00000000
0.00000000
0.00000000
0.00000000
0.00000000
0.00000000
0.00000000
0.00000000
0.00000000
0.00000000
0.00000000
0.00000000
0.00000000
0.00000000
0.00000000
0.00000000
0.00000000
0.00000000
0.00000000
0.00000000
0.00000000
0.00000000
0.00000000
0.00000000
0.00000000
0.00000000
0.00000000
0.00000000
0.00000000
0.00000000
0.00000000
0.00000000
0.00000000
0.00000000
0.00000000
0.00000000
0.00000000
0.00000000
0.00000000
0.00000000
0.00000000
0.00000000
0.00000000
0.00000000
0.00000000
0.00000000
0.00000000
0.00000000
0.00000000
0.00000000
0.00000000
0.00000000
0.00000000
0.00000000
0.00000000
0.00000000
0.00000000
0.00000000
0.00000000
0.00000000
0.00000000
0.00000000
0.00000000
0.00000000
0.00000000
0.00000000
0.00000000
0.00000000
0.00000000
0.00000000
0.00000000
0.00000000
0.00000000
0.00000000
0.00000000
0.00000000
0.00000000
0.00000000
0.00000000
0.00000000
0.00000000
0.00000000
0.00000000
0.00000000
0.00000000
0.00000000
0.00000000
0.00000000
0.00000000
0.00000000
0.00000000
0.00000000
0.00000000
0.00000000
0.00000000
0.00000000
0.00000000
0.00000000
0.00000000
0.00000000
0.00000000
0.00000000
0.00000000
0.00000000
0.00000000
0.00000000
0.00000000
0.00000000
0.00000000
0.00000000
0.00000000
0.00000000
0.00000000
0.00000000
0.00000000
0.00000000
0.00000000
0.00000000
0.00000000
0.00000000
0.00000000
0.00000000
0.00000000
0.00000000
0.00000000
0.00000000
0.00000000
0.00000000
0.00000000
0.00000000
0.00000000
0.00000000
0.00000000
0.00000000
0.00000000
0.00000000
0.00000000
0.00000000
0.00000000
0.00000000
0.00000000
0.00000000
0.00000000
0.00000000
0.00000000
0.00000000
0.00000000
0.00000000
0.00000000
0.00000000
0.00000000
0.00000000
0.00000000
0.00000000
0.00000000
0.00000000
0.00000000
0.00000000
0.00000000
0.00000000
0.00000000
0.00000000
0.00000000
0.00000000
0.00000000
0.00000000
0.00000000
0.00000000
0.00000000
0.00000000
0.00000000
0.00000000
0.00000000
0.00000000
0.00000000
0.00000000
0.00000000
0.00000000
0.00000000
0.00000000
0.00000000
0.00000000
0.00000000
0.00000000
0.00000000
0.00000000
0.00000000
0.00000000
0.00000000
0.00000000
0.00000000
0.00000000
0.00000000
0.00000000
0.00000000
0.00000000
0.00000000
0.00000000
0.00000000
0.00000000
0.00000000
0.00000000
0.00000000
0.00000000
0.00000000
0.00000001
0.00000001
0.00000001
0.00000002
0.00000003
0.00000004
0.00000006
0.00000009
0.00000013
0.00000019
0.00000026
0.00000037
0.00000052
0.00000073
0.00000102
0.00000141
0.00000195
0.00000268
0.00000367
0.00000501
0.00000681
0.00000922
0.00001242
0.00001667
0.00002228
0.00002965
0.00003929
0.00005185
0.00006814
0.00008919
0.00011624
0.00015086
0.00019499
0.00025097
0.00032169
0.00041063
0.00052197
0.00066077
0.00083301
0.00104581
0.00130755
0.00162807
0.00201882
0.00249307
0.00306611
0.00375543
0.00458094
0.00556516
0.00673335
0.00811372
0.00973754
0.01163922
0.01385636
0.01642973
0.01940322
0.02282368
0.02674069
0.03120625
0.03627439
0.04200066
0.04844152
0.05565368
0.06369331
0.07261515
0.08247160
0.09331171
0.10518017
0.11811624
0.13215268
0.14731475
0.16361924
0.18107357
0.19967502
0.21941008
0.24025395
0.26217027
0.28511100
0.30901649
0.33381584
0.35942743
0.38575969
0.41271203
0.44017605
0.46803680
0.49617431
0.52446512
0.55278397
0.58100545
0.60900573
0.63666419
0.66386502
0.69049866
0.71646318
0.74166539
0.76602183
0.78945956
0.81191668
0.83334271
0.85369864
0.87295693
0.89110111
0.90812544
0.92403418
0.93884090
0.95256759
0.96524372
0.97690525
0.98759360
0.99735463
1.00623761
1.01429426
1.02157785
1.02814231
1.03404151
1.03932855
1.04405520
1.04827132
1.05202393
1.05535526
1.05829664
1.06084810
1.06290212
1.06395996
1.06213276
1.05087437
1.01118049
0.91171019
0.73370601
0.55276224
0.40562636
0.29442861
0.21257254
0.15295525
0.10976248
0.07857392
0.05611336
0.03997774
0.02841352
0.02014529
0.01424785
0.01005166
0.00707333
0.00496469
0.00347558
0.00242670
0.00168983
0.00117352
0.00081274
0.00056132
0.00038659
0.00026549
0.00018181
0.00012414
0.00008452
0.00005737
0.00003883
0.00002620
0.00001763
0.00001182
0.00000791
0.00000527
0.00000350
0.00000232
0.00000153
0.00000101
0.00000066
0.00000043
0.00000028
0.00000018
0.00000012
0.00000008
0.00000005
0.00000003
0.00000002
0.00000001
0.00000001
0.00000001
0.00000000
0.00000000
0.00000000
0.00000000
0.00000000
0.00000000
0.00000000
0.00000000
0.00000000
0.00000000
0.00000000
0.00000000
0.00000000
0.00000000
0.00000000
0.00000000
0.00000000
0.00000000
0.00000000
0.00000000
0.00000000
0.00000000
0.00000000
0.00000000
0.00000000
0.00000000
0.00000000
0.00000000
0.00000000
0.00000000
0.00000000
0.00000000
0.00000000
0.00000000
0.00000000
0.00000000
0.00000000
0.00000000
0.00000000
0.00000000
0.00000000
0.00000000
0.00000000
0.00000000
0.00000000
0.00000000
0.00000000
0.00000000
0.00000000
0.00000000
0.00000000
0.00000000
0.00000000
0.00000000
0.00000000
0.00000000
0.00000000
0.00000000
0.00000000
0.00000000
0.00000000
0.00000000
0.00000000
0.00000000
0.00000000
0.00000000
0.00000000
0.00000000
0.00000000
0.00000000
0.00000000
0.00000000
0.00000000
0.00000000
0.00000000
0.00000000
0.00000000
0.00000000
0.00000000
0.00000000
0.00000000
0.00000000
0.00000000
0.00000000
0.00000000
0.00000000
0.00000000
0.00000000
0.00000000
0.00000000
0.00000000
0.00000000
0.00000000
0.00000000
0.00000000
0.00000000
0.00000000
0.00000000
0.00000000
0.00000000
0.00000000
0.00000000
0.00000000
0.00000000
0.00000000
0.00000000
0.00000000
0.00000000
0.00000000
0.00000000
0.00000000
0.00000000
0.00000000
0.00000000
0.00000000
0.00000000
0.00000000
0.00000000
0.00000000
0.00000000
0.00000000
0.00000000
0.00000000
0.00000000
0.00000000
0.00000000
0.00000000
0.00000000
0.00000000
0.00000000
0.00000000
0.00000000
0.00000000
0.00000000
0.00000000
0.00000000
0.00000000
0.00000000
0.00000000
0.00000000
0.00000000
0.00000000
0.00000000
0.00000000
0.00000000
0.00000000
0.00000000
0.00000000
0.00000000
0.00000000
0.00000000
0.00000000
0.00000000
0.00000000
0.00000000
0.00000000
0.00000000
0.00000000
0.00000000
0.00000000
0.00000000
0.00000000
0.00000000
0.00000000
0.00000000
0.00000000
0.00000000
0.00000000
0.00000000
0.00000000
0.00000000
0.00000000
0.00000000
0.00000000
0.00000000
0.00000000
0.00000000
0.00000000
0.00000000
0.00000000
0.00000000
0.00000000
0.00000000
0.00000000
0.00000000
0.00000000
0.00000000
0.00000000
0.00000000
0.00000000
0.00000000
0.00000000
0.00000000
0.00000000
0.00000000
0.00000000
0.00000000
0.00000000
0.00000000
0.00000000
0.00000000
0.00000000
0.00000000
0.00000000
0.00000000
0.00000000
0.00000000
0.00000000
0.00000000
0.00000000
0.00000000
0.00000000
0.00000000
0.00000000
0.00000000
0.00000000
0.00000000
0.00000000
0.00000000
0.00000000
0.00000000
0.00000001
0.00000001
0.00000001
0.00000002
0.00000003
0.00000004
0.00000006
0.00000009
0.00000013
0.00000019
0.00000026
0.00000037
0.00000052
0.00000073
0.00000102
0.00000141
0.00000195
0.00000268
0.00000367
0.00000501
0.00000681
0.00000922
0.00001242
0.00001667
0.00002228
0.00002965
0.00003929
0.00005185
0.00006814
0.00008919
0.00011624
0.00015086
0.00019499
0.00025097
0.00032169
0.00041063
0.00052197
0.00066077
0.00083301
0.00104581
0.00130755
0.00162807
0.00201882
0.00249307
0.00306611
0.00375543
0.00458094
0.00556516
0.00673335
0.00811372
0.00973754
0.01163922
0.01385636
0.01642973
0.01940323
0.02282368
0.02674069
0.03120625
0.03627439
0.04200066
0.04844152
0.05565369
0.06369332
0.07261515
0.08247160
0.09331171
0.10518017
0.11811624
0.13215268
0.14731475
0.16361924
0.18107357
0.19967502
0.21941007
0.24025393
0.26217026
0.28511098
0.30901646
0.33381580
0.35942739
0.38575965
0.41271198
0.44017599
0.46803673
0.49617423
0.52446503
0.55278387
0.58100534
0.60900561
0.63666406
0.66386488
0.69049852
0.71646303
0.74166524
0.76602169
0.78945943
0.81191658
0.83334265
0.85369866
0.87295703
0.89110135
0.90812585
0.92403483
0.93884185
0.95256893
0.96524558
0.97690777
0.98759697
0.99735910
1.00624350
1.01430200
1.02158799
1.02815561
1.03405900
1.03935165
1.04408587
1.04831228
1.05207897
1.05542961
1.05839727
1.06098417
1.06308486
1.06419513
1.06239023
1.05103428
1.01068939
0.91016839
0.73208849
0.55160883
0.40492015
0.29402963
0.21235064
0.15283264
0.10969467
0.07853630
0.05609243
0.03996607
0.02840699
0.02014163
0.01424580
0.01005050
0.00707267
0.00496432
0.00347537
0.00242658
0.00168976
0.00117349
0.00081272
0.00056130
0.00038658
0.00026549
0.00018181
0.00012414
0.00008452
0.00005737
0.00003883
0.00002620
0.00001763
0.00001182
0.00000791
0.00000527
0.00000350
0.00000232
0.00000153
0.00000101
0.00000066
0.00000043
0.00000028
0.00000018
0.00000012
0.00000008
0.00000005
0.00000003
0.00000002
0.00000001
0.00000001
0.00000001
0.00000000
0.00000000
0.00000000
0.00000000
0.00000000
0.00000000
0.00000000
0.00000000
0.00000000
0.00000000
0.00000000
0.00000000
0.00000000
0.00000000
0.00000000
0.00000000
0.00000000
0.00000000
0.00000000
0.00000000
0.00000000
0.00000000
0.00000000
0.00000000
0.00000000
0.00000000
0.00000000
0.00000000
0.00000000
0.00000000
0.00000000
0.00000000
0.00000000
0.00000000
0.00000000
0.00000000
0.00000000
0.00000000
0.00000000
0.00000000
0.00000000
0.00000000
0.00000000
0.00000000
0.00000000
0.00000000
0.00000000
0.00000000
0.00000000
0.00000000
0.00000000
0.00000000
0.00000000
0.00000000
0.00000000
0.00000000
0.00000000
0.00000000
0.00000000
0.00000000
0.00000000
0.00000000
0.00000000
0.00000000
0.00000000
0.00000000
0.00000000
0.00000000
0.00000000
0.00000000
0.00000000
0.00000000
0.00000000
0.00000000
0.00000000
0.00000000
0.00000000
0.00000000
0.00000000
0.00000000
0.00000000
0.00000000
0.00000000
0.00000000
0.00000000
0.00000000
0.00000000
0.00000000
0.00000000
0.00000000
0.00000000
0.00000000
0.00000000
0.00000000
0.00000000
0.00000000
0.00000000
0.00000000
0.00000000
0.00000000
0.00000000
0.00000000
0.00000000
0.00000000
0.00000000
0.00000000
0.00000000
0.00000000
0.00000000
0.00000000
0.00000000
0.00000000
0.00000000
0.00000000
0.00000000
0.00000000
0.00000000
0.00000000
0.00000000
0.00000000
0.00000000
0.00000000
0.00000000
0.00000000
0.00000000
0.00000000
0.00000000
0.00000000
0.00000000
0.00000000
0.00000000
0.00000000
0.00000000
0.00000000
0.00000000
0.00000000
0.00000000
0.00000000
0.00000000
0.00000000
0.00000000
0.00000000
0.00000000
0.00000000
0.00000000
0.00000000
0.00000000
0.00000000
0.00000000
0.00000000
0.00000000
0.00000000
0.00000000
0.00000000
0.00000000
0.00000000
0.00000000
0.00000000
0.00000000
0.00000000
0.00000000
0.00000000
0.00000000
0.00000000
0.00000000
0.00000000
0.00000000
0.00000000
0.00000000
0.00000000
0.00000000
0.00000000
0.00000000
0.00000000
0.00000000
0.00000000
0.00000000
0.00000000
0.00000000
0.00000000
0.00000000
0.00000000
0.00000000
0.00000000
0.00000000
0.00000000
0.00000000
0.00000000
0.00000000
0.00000000
0.00000000
0.00000000
0.00000000
0.00000000
0.00000000
0.00000000
0.00000000
0.00000000
0.00000000
0.00000000
0.00000000
0.00000000
0.00000000
0.00000000
0.00000000
0.00000000
0.00000000
0.00000000
0.00000000
0.00000000
0.00000000
0.00000000
0.00000000
0.00000000
0.00000000
0.00000000
0.00000000
0.00000000
0.00000000
0.00000000
0.00000000
0.00000001
0.00000001
0.00000001
0.00000002
0.00000003
0.00000004
0.00000006
0.00000009
0.00000013
0.00000019
0.00000026
0.00000037
0.00000052
0.00000073
0.00000102
0.00000141
0.00000195
0.00000268
0.00000367
0.00000501
0.00000681
0.00000922
0.00001242
0.00001667
0.00002228
0.00002965
0.00003929
0.00005185
0.00006814
0.00008919
0.00011624
0.00015086
0.00019499
0.00025097
0.00032169
0.00041063
0.00052197
0.00066077
0.00083301
0.00104581
0.00130755
0.00162807
0.00201882
0.00249307
0.00306611
0.00375543
0.00458095
0.00556516
0.00673335
0.00811372
0.00973755
0.01163923
0.01385636
0.01642974
0.01940323
0.02282369
0.02674069
0.03120625
0.03627439
0.04200066
0.04844152
0.05565369
0.06369332
0.07261515
0.08247160
0.09331171
0.10518018
0.11811624
0.13215268
0.14731475
0.16361923
0.18107356
0.19967501
0.21941005
0.24025392
0.26217024
0.28511095
0.30901643
0.33381577
0.35942735
0.38575959
0.41271192
0.44017592
0.46803665
0.49617414
0.52446493
0.55278375
0.58100521
0.60900546
0.63666390
0.66386470
0.69049833
0.71646284
0.74166504
0.76602149
0.78945924
0.81191642
0.83334253
0.85369859
0.87295705
0.89110149
0.90812615
0.92403534
0.93884265
0.95257010
0.96524721
0.97691001
0.98759999
0.99736310
1.00624875
1.01430885
1.02159690
1.02816718
1.03407404
1.03937126
1.04411157
1.04834616
1.05212396
1.05548973
1.05847813
1.06109361
1.06323132
1.06438547
1.06261181
1.05113938
1.01028901
0.90869141
0.73058942
0.55062022
0.40433715
0.29369625
0.21216477
0.15272873
0.10963654
0.07850371
0.05607409
0.03995572
0.02840113
0.02013831
0.01424392
0.01004944
0.00707207
0.00496398
0.00347518
0.00242647
0.00168970
0.00117345
0.00081270
0.00056129
0.00038657
0.00026549
0.00018181
0.00012414
0.00008452
0.00005737
0.00003883
0.00002620
0.00001763
0.00001182
0.00000791
0.00000527
0.00000350
0.00000232
0.00000153
0.00000101
0.00000066
0.00000043
0.00000028
0.00000018
0.00000012
0.00000008
0.00000005
0.00000003
0.00000002
0.00000001
0.00000001
0.00000001
0.00000000
0.00000000
0.00000000
0.00000000
0.00000000
0.00000000
0.00000000
0.00000000
0.00000000
0.00000000
0.00000000
0.00000000
0.00000000
0.00000000
0.00000000
0.00000000
0.00000000
0.00000000
0.00000000
0.00000000
0.00000000
0.00000000
0.00000000
0.00000000
0.00000000
0.00000000
0.00000000
0.00000000
0.00000000
0.00000000
0.00000000
0.00000000
0.00000000
0.00000000
0.00000000
0.00000000
0.00000000
0.00000000
0.00000000
0.00000000
0.00000000
0.00000000
0.00000000
0.00000000
0.00000000
0.00000000
0.00000000
0.00000000
0.00000000
0.00000000
0.00000000
0.00000000
0.00000000
0.00000000
0.00000000
0.00000000
0.00000000
0.00000000
0.00000000
0.00000000
0.00000000
0.00000000
0.00000000
0.00000000
0.00000000
0.00000000
0.00000000
0.00000000
0.00000000
0.00000000
0.00000000
0.00000000
0.00000000
0.00000000
0.00000000
0.00000000
0.00000000
0.00000000
0.00000000
0.00000000
0.00000000
0.00000000
0.00000000
0.00000000
0.00000000
0.00000000
0.00000000
0.00000000
0.00000000
0.00000000
0.00000000
0.00000000
0.00000000
0.00000000
0.00000000
0.00000000
0.00000000
0.00000000
0.00000000
0.00000000
0.00000000
0.00000000
0.00000000
0.00000000
0.00000000
0.00000000
0.00000000
0.00000000
0.00000000
0.00000000
0.00000000
0.00000000
0.00000000
0.00000000
0.00000000
0.00000000
0.00000000
0.00000000
0.00000000
0.00000000
0.00000000
0.00000000
0.00000000
0.00000000
0.00000000
0.00000000
0.00000000
0.00000000