# vtk DataFile Version 3.0
Concentration output
ASCII
DATASET STRUCTURED_POINTS
DIMENSIONS 398 98 1
ORIGIN 0 0 0
SPACING 0.03 0.03 1.0
POINT_DATA 39004
SCALARS Variable float 1
LOOKUP_TABLE default
0.00008851
0.00009067
0.00009505
0.00010171
0.00011079
0.00012245
0.00013689
0.00015439
0.00017525
0.00019983
0.00022856
0.00026193
0.00030048
0.00034484
0.00039573
0.00045392
0.00052031
0.00059588
0.00068173
0.00077906
0.00088924
0.00101372
0.00115414
0.00131230
0.00149013
0.00168979
0.00191360
0.00216411
0.00244407
0.00275648
0.00310457
0.00349184
0.00392204
0.00439922
0.00492771
0.00551217
0.00615756
0.00686915
0.00765256
0.00851377
0.00945907
0.01049513
0.01162897
0.01286796
0.01421984
0.01569268
0.01729491
0.01903529
0.02092292
0.02296719
0.02517779
0.02756469
0.03013809
0.03290843
0.03588631
0.03908251
0.04250791
0.04617346
0.05009013
0.05426888
0.05872059
0.06345600
0.06848567
0.07381990
0.07946870
0.08544167
0.09174799
0.09839633
0.10539476
0.11275073
0.12047097
0.12856141
0.13702717
0.14587243
0.15510042
0.16471334
0.17471231
0.18509733
0.19586723
0.20701962
0.21855087
0.23045610
0.24272912
0.25536245
0.26834731
0.28167360
0.29532997
0.30930375
0.32358107
0.33814680
0.35298470
0.36807738
0.38340638
0.39895229
0.41469474
0.43061254
0.44668374
0.46288570
0.47919524
0.49558867
0.51204194
0.52853074
0.54503055
0.56151683
0.57796505
0.59435084
0.61065008
0.62683899
0.64289423
0.65879303
0.67451319
0.69003327
0.70533260
0.72039134
0.73519060
0.74971247
0.76394004
0.77785749
0.79145010
0.80470427
0.81760755
0.83014867
0.84231748
0.85410504
0.86550354
0.87650629
0.88710776
0.89730346
0.90708999
0.91646497
0.92542701
0.93397568
0.94211145
0.94983568
0.95715056
0.96405907
0.97056498
0.97667279
0.98238773
0.98771570
0.99266333
0.99723790
1.00144743
1.00530063
1.00880696
1.01197671
1.01482101
1.01735199
1.01958286
1.02152812
1.02320376
1.02462762
1.02581982
1.02680336
1.02760500
1.02825636
1.02879548
1.02926867
1.02973241
1.03025475
1.03091443
1.03179469
1.03297308
1.03451523
1.03646054
1.03881161
1.04152755
1.04453443
1.04773953
1.05104901
1.05437894
1.05765883
1.06083107
1.06384866
1.06667271
1.06927028
1.07161271
1.07367441
1.07543209
1.07686437
1.07795155
1.07867580
1.07902134
1.07897497
1.07852656
1.07766981
1.07640292
1.07472941
1.07265888
1.07020770
1.06739968
1.06426643
1.06084775
1.05719153
1.05335352
1.04939656
1.04538933
1.04140445
1.03751574
1.03379477
1.03030687
1.02710700
1.02423618
1.02171921
1.01956427
1.01776435
1.01630035
1.01514491
1.01426655
1.01363337
1.01321614
1.01299061
1.01293925
1.01305243
1.01332958
1.01378035
1.01442608
1.01530149
1.01645607
1.01795198
1.01984196
1.02205126
1.02387639
1.02207091
1.00433575
0.93251303
0.74288709
0.53273001
0.36662038
0.24837955
0.16718887
0.11219735
0.07517255
0.05031633
0.03365599
0.02250033
0.01503593
0.01004418
0.00670756
0.00447818
0.00298915
0.00199493
0.00133126
0.00088836
0.00059283
0.00039567
0.00026413
0.00017638
0.00011782
0.00007875
0.00005266
0.00003524
0.00002360
0.00001582
0.00001062
0.00000713
0.00000480
0.00000323
0.00000218
0.00000147
0.00000100
0.00000068
0.00000046
0.00000031
0.00000021
0.00000015
0.00000010
0.00000007
0.00000005
0.00000003
0.00000002
0.00000002
0.00000001
0.00000001
0.00000001
0.00000000
0.00000000
0.00000000
0.00000000
0.00000000
0.00000000
0.00000000
0.00000000
0.00000000
0.00000000
0.00000000
0.00000000
0.00000000
0.00000000
0.00000000
0.00000000
0.00000000
0.00000000
0.00000000
0.00000000
0.00000000
0.00000000
0.00000000
0.00000000
0.00000000
0.00000000
0.00000000
0.00000000
0.00000000
0.00000000
0.00000000
0.00000000
0.00000000
0.00000000
0.00000000
0.00000000
0.00000000
0.00000000
0.00000000
0.00000000
0.00000000
0.00000000
0.00000000
0.00000000
0.00000000
0.00000000
0.00000000
0.00000000
0.00000000
0.00000000
0.00000000
0.00000000
0.00000000
0.00000000
0.00000000
0.00000000
0.00000000
0.00000000
0.00000000
0.00000000
0.00000000
0.00000000
0.00000000
0.00000000
0.00000000
0.00000000
0.00000000
0.00000000
0.00000000
0.00000000
0.00000000
0.00000000
0.00000000
0.00000000
0.00000000
0.00000000
0.00000000
0.00000000
0.00000000
0.00000000
0.00000000
0.00000000
0.00000000
0.00000000
0.00000000
0.00000000
0.00000000
0.00000000
0.00000000
0.00000000
0.00000000
0.00000000
0.00000000
0.00000000
0.00000000
0.00000000
0.00000000
0.00000000
0.00000000
0.00000000
0.00000000
0.00000000
0.00000000
0.00000000
0.00000000
0.00000000
0.00000000
0.00000000
0.00000000
0.00000000
0.00000000
0.00000000
0.00000000
0.00000000
0.00000000
0.00000000
0.00000000
0.00000000
0.00000000
0.00000000
0.00000000
0.00000000
0.00000000
0.00008851
0.00009067
0.00009505
0.00010171
0.00011079
0.00012245
0.00013689
0.00015439
0.00017525
0.00019983
0.00022856
0.00026193
0.00030048
0.00034484
0.00039573
0.00045392
0.00052031
0.00059588
0.00068173
0.00077906
0.00088924
0.00101372
0.00115414
0.00131230
0.00149013
0.00168979
0.00191360
0.00216411
0.00244407
0.00275648
0.00310457
0.00349184
0.00392204
0.00439922
0.00492771
0.00551217
0.00615756
0.00686915
0.00765256
0.00851377
0.00945907
0.01049513
0.01162897
0.01286796
0.01421984
0.01569268
0.01729491
0.01903529
0.02092292
0.02296719
0.02517779
0.02756469
0.03013809
0.03290843
0.03588631
0.03908251
0.04250791
0.04617346
0.05009013
0.05426888
0.05872059
0.06345600
0.06848567
0.07381990
0.07946870
0.08544167
0.09174799
0.09839633
0.10539476
0.11275073
0.12047097
0.12856141
0.13702717
0.14587243
0.15510042
0.16471334
0.17471231
0.18509733
0.19586723
0.20701962
0.21855087
0.23045610
0.24272912
0.25536245
0.26834730
0.28167360
0.29532997
0.30930375
0.32358106
0.33814680
0.35298470
0.36807737
0.38340637
0.39895228
0.41469473
0.43061253
0.44668372
0.46288568
0.47919522
0.49558864
0.51204191
0.52853070
0.54503051
0.56151678
0.57796499
0.59435077
0.61065000
0.62683890
0.64289413
0.65879291
0.67451306
0.69003312
0.70533242
0.72039113
0.73519037
0.74971221
0.76393975
0.77785716
0.79144973
0.80470386
0.81760710
0.83014817
0.84231694
0.85410445
0.86550290
0.87650561
0.88710703
0.89730269
0.90708920
0.91646417
0.92542621
0.93397490
0.94211072
0.94983502
0.95715001
0.96405868
0.97056480
0.97667288
0.98238815
0.98771653
0.99266465
0.99723979
1.00144997
1.00530388
1.00881098
1.01198151
1.01482655
1.01735813
1.01958932
1.02153439
1.02320902
1.02463059
1.02581851
1.02679485
1.02758501
1.02821885
1.02873218
1.02916886
1.02958365
1.03004530
1.03063676
1.03144920
1.03256578
1.03406857
1.03600772
1.03839123
1.04117035
1.04425451
1.04753538
1.05090940
1.05428974
1.05760687
1.06080562
1.06384165
1.06667837
1.06928461
1.07163301
1.07369886
1.07545947
1.07689381
1.07798239
1.07870744
1.07905319
1.07900634
1.07855663
1.07769756
1.07642711
1.07474854
1.07267115
1.07021099
1.06739152
1.06424403
1.06080803
1.05713125
1.05326950
1.04928605
1.04525060
1.04123749
1.03732307
1.03358212
1.03008339
1.02688484
1.02402937
1.02154191
1.01942886
1.01767981
1.01627128
1.01517129
1.01434395
1.01375353
1.01336763
1.01315945
1.01310921
1.01320499
1.01344348
1.01383082
1.01438381
1.01513146
1.01611634
1.01739258
1.01900323
1.02086646
1.02228727
1.02014618
1.00242976
0.93179713
0.74215137
0.53131224
0.36516232
0.24717838
0.16630069
0.11158345
0.07476558
0.05005405
0.03349032
0.02239723
0.01497250
0.01000552
0.00668418
0.00446413
0.00298075
0.00198993
0.00132831
0.00088662
0.00059182
0.00039508
0.00026379
0.00017618
0.00011771
0.00007869
0.00005263
0.00003522
0.00002360
0.00001582
0.00001062
0.00000713
0.00000480
0.00000323
0.00000218
0.00000147
0.00000100
0.00000068
0.00000046
0.00000031
0.00000021
0.00000015
0.00000010
0.00000007
0.00000005
0.00000003
0.00000002
0.00000002
0.00000001
0.00000001
0.00000001
0.00000000
0.00000000
0.00000000
0.00000000
0.00000000
0.00000000
0.00000000
0.00000000
0.00000000
0.00000000
0.00000000
0.00000000
0.00000000
0.00000000
0.00000000
0.00000000
0.00000000
0.00000000
0.00000000
0.00000000
0.00000000
0.00000000
0.00000000
0.00000000
0.00000000
0.00000000
0.00000000
0.00000000
0.00000000
0.00000000
0.00000000
0.00000000
0.00000000
0.00000000
0.00000000
0.00000000
0.00000000
0.00000000
0.00000000
0.00000000
0.00000000
0.00000000
0.00000000
0.00000000
0.00000000
0.00000000
0.00000000
0.00000000
0.00000000
0.00000000
0.00000000
0.00000000
0.00000000
0.00000000
0.00000000
0.00000000
0.00000000
0.00000000
0.00000000
0.00000000
0.00000000
0.00000000
0.00000000
0.00000000
0.00000000
0.00000000
0.00000000
0.00000000
0.00000000
0.00000000
0.00000000
0.00000000
0.00000000
0.00000000
0.00000000
0.00000000
0.00000000
0.00000000
0.00000000
0.00000000
0.00000000
0.00000000
0.00000000
0.00000000
0.00000000
0.00000000
0.00000000
0.00000000
0.00000000
0.00000000
0.00000000
0.00000000
0.00000000
0.00000000
0.00000000
0.00000000
0.00000000
0.00000000
0.00000000
0.00000000
0.00000000
0.00000000
0.00000000
0.00000000
0.00000000
0.00000000
0.00000000
0.00000000
0.00000000
0.00000000
0.00000000
0.00000000
0.00000000
0.00000000
0.00000000
0.00000000
0.00000000
0.00000000
0.00000000
0.00000000
0.00000000
0.00000000
0.00000000
0.00008851
0.00009067
0.00009505
0.00010171
0.00011079
0.00012245
0.00013689
0.00015439
0.00017525
0.00019983
0.00022856
0.00026193
0.00030048
0.00034484
0.00039573
0.00045392
0.00052031
0.00059588
0.00068173
0.00077906
0.00088924
0.00101372
0.00115414
0.00131230
0.00149013
0.00168979
0.00191360
0.00216411
0.00244407
0.00275648
0.00310457
0.00349184
0.00392204
0.00439922
0.00492771
0.00551217
0.00615756
0.00686915
0.00765256
0.00851377
0.00945907
0.01049513
0.01162897
0.01286796
0.01421984
0.01569268
0.01729491
0.01903530
0.02092292
0.02296719
0.02517779
0.02756469
0.03013809
0.03290843
0.03588631
0.03908251
0.04250791
0.04617346
0.05009013
0.05426888
0.05872059
0.06345600
0.06848567
0.07381990
0.07946870
0.08544167
0.09174799
0.09839632
0.10539476
0.11275073
0.12047097
0.12856141
0.13702717
0.14587243
0.15510042
0.16471334
0.17471231
0.18509733
0.19586723
0.20701962
0.21855087
0.23045610
0.24272911
0.25536244
0.26834730
0.28167360
0.29532996
0.30930374
0.32358105
0.33814679
0.35298469
0.36807736
0.38340636
0.39895226
0.41469471
0.43061250
0.44668369
0.46288565
0.47919517
0.49558859
0.51204185
0.52853063
0.54503043
0.56151668
0.57796488
0.59435064
0.61064985
0.62683872
0.64289393
0.65879267
0.67451278
0.69003281
0.70533206
0.72039073
0.73518991
0.74971169
0.76393916
0.77785650
0.79144899
0.80470304
0.81760619
0.83014716
0.84231584
0.85410326
0.86550161
0.87650423
0.88710557
0.89730116
0.90708761
0.91646255
0.92542459
0.93397332
0.94210923
0.94983368
0.95714890
0.96405788
0.97056441
0.97667303
0.98238896
0.98771816
0.99266724
0.99724353
1.00145501
1.00531038
1.00881905
1.01199120
1.01483782
1.01737074
1.01960279
1.02154782
1.02322094
1.02463861
1.02581903
1.02678240
1.02755156
1.02815283
1.02861737
1.02898353
1.02930157
1.02963975
1.03008904
1.03075785
1.03173982
1.03315143
1.03507285
1.03752390
1.04044400
1.04369749
1.04713875
1.05064436
1.05412428
1.05751319
1.06076213
1.06383261
1.06669275
1.06931491
1.07167420
1.07374761
1.07551354
1.07695163
1.07804276
1.07876927
1.07911537
1.07906756
1.07861532
1.07775177
1.07647444
1.07478605
1.07269531
1.07021762
1.06737573
1.06420025
1.06073002
1.05701233
1.05310291
1.04906573
1.04497227
1.04090028
1.03693131
1.03314692
1.02962338
1.02642550
1.02360058
1.02117412
1.01914871
1.01750658
1.01621488
1.01523177
1.01451224
1.01401274
1.01369469
1.01352649
1.01348440
1.01355254
1.01372276
1.01399468
1.01437646
1.01488605
1.01555266
1.01641528
1.01750194
1.01871818
1.01939263
1.01652889
0.99876559
0.92965745
0.73928644
0.52779064
0.36191574
0.24463062
0.16447423
0.11034462
0.07395500
0.04953654
0.03316572
0.02219634
0.01484946
0.00993079
0.00663910
0.00443711
0.00296465
0.00198038
0.00132268
0.00088332
0.00058989
0.00039396
0.00026314
0.00017581
0.00011750
0.00007857
0.00005256
0.00003519
0.00002358
0.00001581
0.00001061
0.00000713
0.00000480
0.00000323
0.00000218
0.00000147
0.00000100
0.00000068
0.00000046
0.00000031
0.00000021
0.00000015
0.00000010
0.00000007
0.00000005
0.00000003
0.00000002
0.00000002
0.00000001
0.00000001
0.00000001
0.00000000
0.00000000
0.00000000
0.00000000
0.00000000
0.00000000
0.00000000
0.00000000
0.00000000
0.00000000
0.00000000
0.00000000
0.00000000
0.00000000
0.00000000
0.00000000
0.00000000
0.00000000
0.00000000
0.00000000
0.00000000
0.00000000
0.00000000
0.00000000
0.00000000
0.00000000
0.00000000
0.00000000
0.00000000
0.00000000
0.00000000
0.00000000
0.00000000
0.00000000
0.00000000
0.00000000
0.00000000
0.00000000
0.00000000
0.00000000
0.00000000
0.00000000
0.00000000
0.00000000
0.00000000
0.00000000
0.00000000
0.00000000
0.00000000
0.00000000
0.00000000
0.00000000
0.00000000
0.00000000
0.00000000
0.00000000
0.00000000
0.00000000
0.00000000
0.00000000
0.00000000
0.00000000
0.00000000
0.00000000
0.00000000
0.00000000
0.00000000
0.00000000
0.00000000
0.00000000
0.00000000
0.00000000
0.00000000
0.00000000
0.00000000
0.00000000
0.00000000
0.00000000
0.00000000
0.00000000
0.00000000
0.00000000
0.00000000
0.00000000
0.00000000
0.00000000
0.00000000
0.00000000
0.00000000
0.00000000
0.00000000
0.00000000
0.00000000
0.00000000
0.00000000
0.00000000
0.00000000
0.00000000
0.00000000
0.00000000
0.00000000
0.00000000
0.00000000
0.00000000
0.00000000
0.00000000
0.00000000
0.00000000
0.00000000
0.00000000
0.00000000
0.00000000
0.00000000
0.00000000
0.00000000
0.00000000
0.00000000
0.00000000
0.00000000
0.00000000
0.00000000
0.00000000
0.00000000
0.00008851
0.00009067
0.00009505
0.00010171
0.00011079
0.00012245
0.00013689
0.00015439
0.00017525
0.00019983
0.00022856
0.00026193
0.00030048
0.00034484
0.00039573
0.00045392
0.00052031
0.00059588
0.00068173
0.00077906
0.00088924
0.00101372
0.00115414
0.00131230
0.00149013
0.00168979
0.00191360
0.00216411
0.00244407
0.00275648
0.00310457
0.00349184
0.00392204
0.00439922
0.00492771
0.00551217
0.00615756
0.00686915
0.00765256
0.00851377
0.00945907
0.01049513
0.01162897
0.01286796
0.01421984
0.01569268
0.01729491
0.01903530
0.02092292
0.02296719
0.02517779
0.02756469
0.03013809
0.03290843
0.03588631
0.03908251
0.04250791
0.04617346
0.05009013
0.05426888
0.05872059
0.06345600
0.06848567
0.07381990
0.07946870
0.08544167
0.09174799
0.09839632
0.10539476
0.11275073
0.12047097
0.12856141
0.13702717
0.14587243
0.15510041
0.16471333
0.17471231
0.18509733
0.19586723
0.20701962
0.21855087
0.23045609
0.24272911
0.25536244
0.26834729
0.28167359
0.29532995
0.30930374
0.32358104
0.33814678
0.35298467
0.36807734
0.38340634
0.39895224
0.41469468
0.43061247
0.44668364
0.46288559
0.47919511
0.49558852
0.51204177
0.52853053
0.54503030
0.56151654
0.57796471
0.59435045
0.61064962
0.62683846
0.64289362
0.65879232
0.67451238
0.69003234
0.70533152
0.72039012
0.73518922
0.74971090
0.76393827
0.77785551
0.79144788
0.80470180
0.81760482
0.83014565
0.84231418
0.85410146
0.86549967
0.87650215
0.88710336
0.89729884
0.90708520
0.91646009
0.92542213
0.93397091
0.94210694
0.94983161
0.95714715
0.96405659
0.97056374
0.97667314
0.98239006
0.98772047
0.99267102
0.99724903
1.00146249
1.00532009
1.00883121
1.01200594
1.01485513
1.01739041
1.01962426
1.02157002
1.02324201
1.02465556
1.02582716
1.02677456
1.02751706
1.02807587
1.02847499
1.02874334
1.02892125
1.02906815
1.02928912
1.02975285
1.03055049
1.03174222
1.03363689
1.03618459
1.03933850
1.04288107
1.04658035
1.05028570
1.05390968
1.05739840
1.06071507
1.06383101
1.06672155
1.06936410
1.07173723
1.07382019
1.07559286
1.07703572
1.07813010
1.07885847
1.07920493
1.07915573
1.07869989
1.07782999
1.07654289
1.07484053
1.07273071
1.07022785
1.06735360
1.06413741
1.06061698
1.05683861
1.05285749
1.04873800
1.04455377
1.04038728
1.03632816
1.03246920
1.02889977
1.02569716
1.02291728
1.02058737
1.01870362
1.01723550
1.01613425
1.01534182
1.01479853
1.01444876
1.01424487
1.01414898
1.01413277
1.01417611
1.01426521
1.01439139
1.01455082
1.01474558
1.01498550
1.01528815
1.01566156
1.01600201
1.01566018
1.01180211
0.99351493
0.92525378
0.73272717
0.52100247
0.35629872
0.24050073
0.16163626
0.10847320
0.07275439
0.04878108
0.03269709
0.02190881
0.01467457
0.00982519
0.00657574
0.00439930
0.00294220
0.00196712
0.00131488
0.00087876
0.00058724
0.00039243
0.00026227
0.00017532
0.00011723
0.00007842
0.00005248
0.00003515
0.00002355
0.00001580
0.00001061
0.00000713
0.00000480
0.00000323
0.00000218
0.00000147
0.00000100
0.00000068
0.00000046
0.00000031
0.00000021
0.00000015
0.00000010
0.00000007
0.00000005
0.00000003
0.00000002
0.00000002
0.00000001
0.00000001
0.00000001
0.00000000
0.00000000
0.00000000
0.00000000
0.00000000
0.00000000
0.00000000
0.00000000
0.00000000
0.00000000
0.00000000
0.00000000
0.00000000
0.00000000
0.00000000
0.00000000
0.00000000
0.00000000
0.00000000
0.00000000
0.00000000
0.00000000
0.00000000
0.00000000
0.00000000
0.00000000
0.00000000
0.00000000
0.00000000
0.00000000
0.00000000
0.00000000
0.00000000
0.00000000
0.00000000
0.00000000
0.00000000
0.00000000
0.00000000
0.00000000
0.00000000
0.00000000
0.00000000
0.00000000
0.00000000
0.00000000
0.00000000
0.00000000
0.00000000
0.00000000
0.00000000
0.00000000
0.00000000
0.00000000
0.00000000
0.00000000
0.00000000
0.00000000
0.00000000
0.00000000
0.00000000
0.00000000
0.00000000
0.00000000
0.00000000
0.00000000
0.00000000
0.00000000
0.00000000
0.00000000
0.00000000
0.00000000
0.00000000
0.00000000
0.00000000
0.00000000
0.00000000
0.00000000
0.00000000
0.00000000
0.00000000
0.00000000
0.00000000
0.00000000
0.00000000
0.00000000
0.00000000
0.00000000
0.00000000
0.00000000
0.00000000
0.00000000
0.00000000
0.00000000
0.00000000
0.00000000
0.00000000
0.00000000
0.00000000
0.00000000
0.00000000
0.00000000
0.00000000
0.00000000
0.00000000
0.00000000
0.00000000
0.00000000
0.00000000
0.00000000
0.00000000
0.00000000
0.00000000
0.00000000
0.00000000
0.00000000
0.00000000
0.00000000
0.00000000
0.00000000
0.00000000
0.00000000
0.00000000
0.00008851
0.00009067
0.00009505
0.00010171
0.00011079
0.00012245
0.00013689
0.00015439
0.00017525
0.00019983
0.00022856
0.00026193
0.00030048
0.00034484
0.00039573
0.00045392
0.00052031
0.00059588
0.00068173
0.00077906
0.00088924
0.00101372
0.00115414
0.00131230
0.00149013
0.00168979
0.00191360
0.00216411
0.00244407
0.00275648
0.00310457
0.00349184
0.00392204
0.00439922
0.00492771
0.00551217
0.00615756
0.00686915
0.00765256
0.00851377
0.00945907
0.01049513
0.01162897
0.01286796
0.01421984
0.01569268
0.01729491
0.01903530
0.02092292
0.02296719
0.02517779
0.02756469
0.03013809
0.03290843
0.03588631
0.03908251
0.04250791
0.04617346
0.05009013
0.05426888
0.05872059
0.06345600
0.06848567
0.07381990
0.07946870
0.08544167
0.09174799
0.09839632
0.10539476
0.11275073
0.12047097
0.12856141
0.13702717
0.14587242
0.15510041
0.16471333
0.17471231
0.18509733
0.19586722
0.20701961
0.21855087
0.23045609
0.24272911
0.25536243
0.26834729
0.28167358
0.29532994
0.30930372
0.32358103
0.33814676
0.35298465
0.36807731
0.38340631
0.39895220
0.41469463
0.43061241
0.44668358
0.46288552
0.47919502
0.49558842
0.51204165
0.52853039
0.54503014
0.56151635
0.57796448
0.59435018
0.61064931
0.62683810
0.64289321
0.65879184
0.67451183
0.69003171
0.70533081
0.72038930
0.73518829
0.74970985
0.76393709
0.77785417
0.79144639
0.80470014
0.81760298
0.83014363
0.84231196
0.85409904
0.86549705
0.87649935
0.88710038
0.89729571
0.90708195
0.91645675
0.92541877
0.93396761
0.94210380
0.94982874
0.95714469
0.96405472
0.97056266
0.97667309
0.98239132
0.98772334
0.99267583
0.99725614
1.00147228
1.00533293
1.00884743
1.01202583
1.01487882
1.01741782
1.01965494
1.02160298
1.02327542
1.02468636
1.02585043
1.02678266
1.02749833
1.02801267
1.02834075
1.02849819
1.02850781
1.02840691
1.02829763
1.02859776
1.02923549
1.03013300
1.03191472
1.03444392
1.03790326
1.04185717
1.04592404
1.04988906
1.05368872
1.05729282
1.06068471
1.06384963
1.06677214
1.06943575
1.07182298
1.07391565
1.07569518
1.07714294
1.07824069
1.07897098
1.07931770
1.07926671
1.07880648
1.07792884
1.07662977
1.07491020
1.07277675
1.07024248
1.06732754
1.06405969
1.06047481
1.05661733
1.05254088
1.04830914
1.04399722
1.03969295
1.03549691
1.03151883
1.02786940
1.02464733
1.02192473
1.01973339
1.01805921
1.01685056
1.01603337
1.01552500
1.01524429
1.01511864
1.01508866
1.01510973
1.01515031
1.01518802
1.01520502
1.01518440
1.01510850
1.01495919
1.01472046
1.01438083
1.01392219
1.01322842
1.01167151
1.00644719
0.98666296
0.91619436
0.71996898
0.50951766
0.34769074
0.23458412
0.15774990
0.10599218
0.07120028
0.04782076
0.03210977
0.02155253
0.01445990
0.00969659
0.00649910
0.00435385
0.00291538
0.00195137
0.00130568
0.00087342
0.00058416
0.00039066
0.00026127
0.00017475
0.00011692
0.00007825
0.00005239
0.00003510
0.00002353
0.00001579
0.00001061
0.00000713
0.00000480
0.00000323
0.00000218
0.00000148
0.00000100
0.00000068
0.00000046
0.00000031
0.00000021
0.00000015
0.00000010
0.00000007
0.00000005
0.00000003
0.00000002
0.00000002
0.00000001
0.00000001
0.00000001
0.00000000
0.00000000
0.00000000
0.00000000
0.00000000
0.00000000
0.00000000
0.00000000
0.00000000
0.00000000
0.00000000
0.00000000
0.00000000
0.00000000
0.00000000
0.00000000
0.00000000
0.00000000
0.00000000
0.00000000
0.00000000
0.00000000
0.00000000
0.00000000
0.00000000
0.00000000
0.00000000
0.00000000
0.00000000
0.00000000
0.00000000
0.00000000
0.00000000
0.00000000
0.00000000
0.00000000
0.00000000
0.00000000
0.00000000
0.00000000
0.00000000
0.00000000
0.00000000
0.00000000
0.00000000
0.00000000
0.00000000
0.00000000
0.00000000
0.00000000
0.00000000
0.00000000
0.00000000
0.00000000
0.00000000
0.00000000
0.00000000
0.00000000
0.00000000
0.00000000
0.00000000
0.00000000
0.00000000
0.00000000
0.00000000
0.00000000
0.00000000
0.00000000
0.00000000
0.00000000
0.00000000
0.00000000
0.00000000
0.00000000
0.00000000
0.00000000
0.00000000
0.00000000
0.00000000
0.00000000
0.00000000
0.00000000
0.00000000
0.00000000
0.00000000
0.00000000
0.00000000
0.00000000
0.00000000
0.00000000
0.00000000
0.00000000
0.00000000
0.00000000
0.00000000
0.00000000
0.00000000
0.00000000
0.00000000
0.00000000
0.00000000
0.00000000
0.00000000
0.00000000
0.00000000
0.00000000
0.00000000
0.00000000
0.00000000
0.00000000
0.00000000
0.00000000
0.00000000
0.00000000
0.00000000
0.00000000
0.00000000
0.00000000
0.00000000
0.00000000
0.00000000
0.00000000
0.00000000
0.00008851
0.00009067
0.00009505
0.00010171
0.00011079
0.00012245
0.00013689
0.00015439
0.00017525
0.00019983
0.00022856
0.00026193
0.00030048
0.00034484
0.00039573
0.00045392
0.00052031
0.00059588
0.00068173
0.00077906
0.00088924
0.00101372
0.00115414
0.00131230
0.00149013
0.00168979
0.00191360
0.00216411
0.00244407
0.00275648
0.00310457
0.00349184
0.00392204
0.00439922
0.00492771
0.00551217
0.00615756
0.00686915
0.00765256
0.00851377
0.00945907
0.01049513
0.01162897
0.01286796
0.01421984
0.01569268
0.01729491
0.01903530
0.02092292
0.02296719
0.02517779
0.02756469
0.03013809
0.03290843
0.03588631
0.03908251
0.04250791
0.04617346
0.05009013
0.05426888
0.05872059
0.06345600
0.06848567
0.07381990
0.07946870
0.08544167
0.09174799
0.09839632
0.10539476
0.11275073
0.12047096
0.12856141
0.13702716
0.14587242
0.15510041
0.16471333
0.17471230
0.18509733
0.19586722
0.20701961
0.21855086
0.23045609
0.24272910
0.25536243
0.26834728
0.28167357
0.29532993
0.30930371
0.32358101
0.33814674
0.35298462
0.36807728
0.38340627
0.39895215
0.41469458
0.43061235
0.44668351
0.46288543
0.47919492
0.49558829
0.51204150
0.52853021
0.54502994
0.56151611
0.57796420
0.59434985
0.61064893
0.62683766
0.64289270
0.65879125
0.67451115
0.69003093
0.70532991
0.72038828
0.73518712
0.74970853
0.76393560
0.77785250
0.79144452
0.80469806
0.81760067
0.83014108
0.84230917
0.85409599
0.86549375
0.87649580
0.88709660
0.89729172
0.90707780
0.91645249
0.92541447
0.93396336
0.94209971
0.94982497
0.95714141
0.96405215
0.97056105
0.97667273
0.98239255
0.98772655
0.99268145
0.99726464
1.00148416
1.00534871
1.00886763
1.01205089
1.01490912
1.01745353
1.01969593
1.02164863
1.02332437
1.02473610
1.02589677
1.02681889
1.02751399
1.02799173
1.02825863
1.02831819
1.02816989
1.02783391
1.02737150
1.02796629
1.02880620
1.02984251
1.03111919
1.03300461
1.03631500
1.04080310
1.04529212
1.04954211
1.05351970
1.05723410
1.06069463
1.06390251
1.06685214
1.06953309
1.07193172
1.07403217
1.07581727
1.07726912
1.07836976
1.07910169
1.07944850
1.07939550
1.07893046
1.07804433
1.07673204
1.07499326
1.07283318
1.07026321
1.06730154
1.06397372
1.06031295
1.05636062
1.05216699
1.04779277
1.04331190
1.03881625
1.03441960
1.03025620
1.02647013
1.02319612
1.02053722
1.01853624
1.01716185
1.01632659
1.01591693
1.01581443
1.01590772
1.01610103
1.01632031
1.01651529
1.01665550
1.01672214
1.01669862
1.01656298
1.01628429
1.01582073
1.01512281
1.01413805
1.01280751
1.01098910
1.00803341
1.00099365
0.97812574
0.90042704
0.69868822
0.49216701
0.33572403
0.22683373
0.15288228
0.10298770
0.06936645
0.04671052
0.03144187
0.02115286
0.01422186
0.00955543
0.00641575
0.00430485
0.00288670
0.00193467
0.00129602
0.00086786
0.00058099
0.00038887
0.00026027
0.00017420
0.00011662
0.00007809
0.00005231
0.00003506
0.00002352
0.00001579
0.00001061
0.00000713
0.00000480
0.00000324
0.00000219
0.00000148
0.00000100
0.00000068
0.00000046
0.00000031
0.00000021
0.00000015
0.00000010
0.00000007
0.00000005
0.00000003
0.00000002
0.00000002
0.00000001
0.00000001
0.00000001
0.00000000
0.00000000
0.00000000
0.00000000
0.00000000
0.00000000
0.00000000
0.00000000
0.00000000
0.00000000
0.00000000
0.00000000
0.00000000
0.00000000
0.00000000
0.00000000
0.00000000
0.00000000
0.00000000
0.00000000
0.00000000
0.00000000
0.00000000
0.00000000
0.00000000
0.00000000
0.00000000
0.00000000
0.00000000
0.00000000
0.00000000
0.00000000
0.00000000
0.00000000
0.00000000
0.00000000
0.00000000
0.00000000
0.00000000
0.00000000
0.00000000
0.00000000
0.00000000
0.00000000
0.00000000
0.00000000
0.00000000
0.00000000
0.00000000
0.00000000
0.00000000
0.00000000
0.00000000
0.00000000
0.00000000
0.00000000
0.00000000
0.00000000
0.00000000
0.00000000
0.00000000
0.00000000
0.00000000
0.00000000
0.00000000
0.00000000
0.00000000
0.00000000
0.00000000
0.00000000
0.00000000
0.00000000
0.00000000
0.00000000
0.00000000
0.00000000
0.00000000
0.00000000
0.00000000
0.00000000
0.00000000
0.00000000
0.00000000
0.00000000
0.00000000
0.00000000
0.00000000
0.00000000
0.00000000
0.00000000
0.00000000
0.00000000
0.00000000
0.00000000
0.00000000
0.00000000
0.00000000
0.00000000
0.00000000
0.00000000
0.00000000
0.00000000
0.00000000
0.00000000
0.00000000
0.00000000
0.00000000
0.00000000
0.00000000
0.00000000
0.00000000
0.00000000
0.00000000
0.00000000
0.00000000
0.00000000
0.00000000
0.00000000
0.00000000
0.00000000
0.00000000
0.00000000
0.00000000
0.00008851
0.00009067
0.00009505
0.00010171
0.00011079
0.00012245
0.00013689
0.00015439
0.00017525
0.00019983
0.00022856
0.00026193
0.00030048
0.00034484
0.00039573
0.00045392
0.00052031
0.00059588
0.00068173
0.00077906
0.00088924
0.00101372
0.00115414
0.00131230
0.00149013
0.00168979
0.00191360
0.00216411
0.00244407
0.00275648
0.00310457
0.00349184
0.00392204
0.00439922
0.00492771
0.00551217
0.00615756
0.00686915
0.00765256
0.00851377
0.00945907
0.01049513
0.01162897
0.01286796
0.01421984
0.01569268
0.01729491
0.01903530
0.02092292
0.02296719
0.02517779
0.02756469
0.03013809
0.03290843
0.03588631
0.03908251
0.04250791
0.04617346
0.05009013
0.05426888
0.05872059
0.06345600
0.06848567
0.07381990
0.07946870
0.08544167
0.09174799
0.09839632
0.10539476
0.11275073
0.12047096
0.12856141
0.13702716
0.14587242
0.15510041
0.16471333
0.17471230
0.18509732
0.19586722
0.20701960
0.21855086
0.23045608
0.24272909
0.25536242
0.26834727
0.28167356
0.29532992
0.30930369
0.32358099
0.33814671
0.35298459
0.36807724
0.38340623
0.39895210
0.41469452
0.43061228
0.44668342
0.46288532
0.47919479
0.49558814
0.51204132
0.52853000
0.54502969
0.56151582
0.57796387
0.59434946
0.61064848
0.62683713
0.64289208
0.65879054
0.67451033
0.69002999
0.70532883
0.72038705
0.73518573
0.74970694
0.76393381
0.77785049
0.79144226
0.80469554
0.81759787
0.83013799
0.84230578
0.85409229
0.86548974
0.87649149
0.88709200
0.89728686
0.90707272
0.91644725
0.92540915
0.93395807
0.94209459
0.94982018
0.95713718
0.96404871
0.97055870
0.97667184
0.98239352
0.98772985
0.99268760
0.99727422
1.00149782
1.00536712
1.00889150
1.01208094
1.01494599
1.01749779
1.01974794
1.02170840
1.02339139
1.02480901
1.02597297
1.02689392
1.02758074
1.02803926
1.02827152
1.02827382
1.02803973
1.02761493
1.02730455
1.02794803
1.02886452
1.02992364
1.03111007
1.03258661
1.03520698
1.03999189
1.04486879
1.04935554
1.05346771
1.05726071
1.06076724
1.06400207
1.06696752
1.06965790
1.07206238
1.07416680
1.07595489
1.07740917
1.07851171
1.07924477
1.07959148
1.07953651
1.07906679
1.07817227
1.07684664
1.07508820
1.07290047
1.07029294
1.06728154
1.06388903
1.06014521
1.05608701
1.05175895
1.04721476
1.04252088
1.03776774
1.03308442
1.02863536
1.02461754
1.02122584
1.01862322
1.01687943
1.01593185
1.01562718
1.01579148
1.01625642
1.01686922
1.01750221
1.01806247
1.01849667
1.01878481
1.01892321
1.01890774
1.01871886
1.01831715
1.01763633
1.01658491
1.01504923
1.01289815
1.00991478
1.00534893
0.99588401
0.96759690
0.87412237
0.66715911
0.46876777
0.32061654
0.21753793
0.14727693
0.09963859
0.06737580
0.04553140
0.03074547
0.02074269
0.01398097
0.00941441
0.00633349
0.00425706
0.00285908
0.00191880
0.00128696
0.00086273
0.00057812
0.00038729
0.00025941
0.00017375
0.00011639
0.00007798
0.00005227
0.00003505
0.00002352
0.00001579
0.00001061
0.00000714
0.00000481
0.00000324
0.00000219
0.00000148
0.00000100
0.00000068
0.00000046
0.00000031
0.00000021
0.00000015
0.00000010
0.00000007
0.00000005
0.00000003
0.00000002
0.00000002
0.00000001
0.00000001
0.00000001
0.00000000
0.00000000
0.00000000
0.00000000
0.00000000
0.00000000
0.00000000
0.00000000
0.00000000
0.00000000
0.00000000
0.00000000
0.00000000
0.00000000
0.00000000
0.00000000
0.00000000
0.00000000
0.00000000
0.00000000
0.00000000
0.00000000
0.00000000
0.00000000
0.00000000
0.00000000
0.00000000
0.00000000
0.00000000
0.00000000
0.00000000
0.00000000
0.00000000
0.00000000
0.00000000
0.00000000
0.00000000
0.00000000
0.00000000
0.00000000
0.00000000
0.00000000
0.00000000
0.00000000
0.00000000
0.00000000