# vtk DataFile Version 3.0
Concentration output
ASCII
DATASET STRUCTURED_POINTS
DIMENSIONS 398 98 1
ORIGIN 0 0 0
SPACING 0.03 0.03 1.0
POINT_DATA 39004
SCALARS Variable float 1
LOOKUP_TABLE default
0.00243296
0.00245516
0.00249968
0.00256677
0.00265681
0.00277031
0.00290790
0.00307034
0.00325851
0.00347343
0.00371626
0.00398827
0.00429088
0.00462563
0.00499421
0.00539844
0.00584028
0.00632182
0.00684530
0.00741310
0.00802773
0.00869186
0.00940829
0.01017997
0.01100998
0.01190155
0.01285804
0.01388297
0.01497998
0.01615285
0.01740548
0.01874191
0.02016631
0.02168295
0.02329623
0.02501066
0.02683084
0.02876148
0.03080734
0.03297331
0.03526432
0.03768534
0.04024143
0.04293765
0.04577910
0.04877089
0.05191810
0.05522583
0.05869912
0.06234297
0.06616231
0.07016198
0.07434672
0.07872117
0.08328981
0.08805698
0.09302682
0.09820331
0.10359018
0.10919097
0.11500892
0.12104703
0.12730801
0.13379425
0.14050782
0.14745045
0.15462350
0.16202796
0.16966442
0.17753309
0.18563372
0.19396566
0.20252782
0.21131862
0.22033606
0.22957765
0.23904043
0.24872097
0.25861535
0.26871918
0.27902757
0.28953517
0.30023616
0.31112425
0.32219267
0.33343423
0.34484130
0.35640580
0.36811927
0.37997283
0.39195726
0.40406296
0.41628000
0.42859815
0.44100687
0.45349539
0.46605269
0.47866755
0.49132856
0.50402417
0.51674271
0.52947243
0.54220153
0.55491816
0.56761050
0.58026677
0.59287526
0.60542438
0.61790265
0.63029879
0.64260171
0.65480056
0.66688473
0.67884394
0.69066822
0.70234793
0.71387385
0.72523712
0.73642935
0.74744258
0.75826934
0.76890264
0.77933603
0.78956359
0.79957994
0.80938030
0.81896043
0.82831672
0.83744614
0.84634626
0.85501527
0.86345195
0.87165567
0.87962640
0.88736465
0.89487148
0.90214845
0.90919760
0.91602137
0.92262261
0.92900447
0.93517039
0.94112403
0.94686921
0.95240989
0.95775010
0.96289395
0.96784558
0.97260917
0.97718890
0.98158893
0.98581330
0.98986575
0.99374946
0.99746652
1.00101719
1.00439895
1.00760531
1.01062502
1.01344234
1.01603989
1.01840489
1.02053745
1.02245467
1.02418754
1.02577050
1.02723559
1.02860601
1.02989582
1.03111029
1.03224786
1.03330326
1.03426987
1.03514120
1.03591166
1.03657693
1.03713399
1.03758109
1.03791759
1.03814373
1.03826052
1.03826955
1.03817288
1.03797301
1.03767278
1.03727547
1.03678481
1.03620513
1.03554154
1.03480027
1.03398900
1.03311753
1.03219857
1.03124882
1.03029029
1.02935189
1.02847068
1.02769258
1.02707140
1.02666549
1.02653175
1.02671791
1.02725516
1.02815341
1.02940005
1.03096262
1.03279460
1.03484291
1.03705468
1.03938185
1.04178335
1.04422556
1.04668164
1.04913053
1.05155580
1.05394471
1.05628742
1.05857637
1.06080581
1.06297145
1.06507021
1.06709999
1.06905951
1.07094822
1.07276612
1.07451375
1.07619206
1.07780235
1.07934625
1.08082561
1.08224249
1.08359912
1.08489781
1.08614099
1.08733109
1.08847059
1.08956192
1.09060751
1.09160968
1.09257070
1.09349273
1.09437782
1.09522788
1.09604472
1.09682999
1.09758522
1.09831179
1.09901096
1.09968386
1.10033148
1.10095473
1.10155437
1.10213107
1.10268538
1.10321773
1.10372844
1.10421763
1.10468526
1.10513101
1.10555422
1.10595377
1.10632798
1.10667437
1.10698946
1.10726850
1.10750514
1.10769105
1.10781547
1.10786477
1.10782193
1.10766602
1.10737173
1.10690895
1.10624237
1.10533138
1.10412995
1.10258686
1.10064601
1.09824688
1.09532489
1.09181150
1.08763338
1.08271009
1.07694882
1.07023448
1.06241346
1.05329176
1.04282594
1.03203907
1.02752191
1.02402724
1.01981255
1.01476981
1.00936507
1.00451928
1.00136252
1.00022953
1.00117617
1.00470317
1.00972770
1.01467448
1.01823122
1.02037361
1.02151730
1.02218634
1.02224435
1.02061881
1.01504936
1.00078971
0.96900643
0.90266951
0.78333011
0.62774815
0.47445665
0.34529197
0.24529596
0.17151833
0.11865309
0.08147856
0.05566511
0.03789549
0.02573692
0.01745263
0.01182440
0.00800794
0.00542306
0.00367338
0.00248926
0.00168778
0.00114508
0.00077741
0.00052815
0.00035905
0.00024425
0.00016625
0.00011322
0.00007714
0.00005257
0.00003584
0.00002444
0.00001667
0.00001137
0.00000776
0.00000529
0.00000361
0.00000246
0.00000168
0.00000115
0.00000078
0.00000053
0.00000036
0.00000025
0.00000017
0.00000012
0.00000008
0.00000005
0.00000004
0.00000002
0.00000002
0.00000001
0.00000001
0.00000001
0.00000000
0.00000000
0.00000000
0.00000000
0.00000000
0.00000000
0.00000000
0.00000000
0.00000000
0.00000000
0.00000000
0.00000000
0.00000000
0.00000000
0.00000000
0.00000000
0.00000000
0.00000000
0.00000000
0.00000000
0.00000000
0.00000000
0.00000000
0.00000000
0.00000000
0.00000000
0.00000000
0.00000000
0.00000000
0.00000000
0.00000000
0.00000000
0.00000000
0.00000000
0.00000000
0.00000000
0.00243296
0.00245516
0.00249968
0.00256677
0.00265681
0.00277031
0.00290790
0.00307034
0.00325851
0.00347343
0.00371626
0.00398827
0.00429088
0.00462563
0.00499421
0.00539844
0.00584028
0.00632182
0.00684530
0.00741310
0.00802773
0.00869186
0.00940829
0.01017997
0.01100998
0.01190155
0.01285804
0.01388297
0.01497998
0.01615285
0.01740548
0.01874191
0.02016631
0.02168295
0.02329623
0.02501066
0.02683084
0.02876148
0.03080734
0.03297331
0.03526432
0.03768534
0.04024143
0.04293765
0.04577910
0.04877089
0.05191810
0.05522583
0.05869912
0.06234297
0.06616231
0.07016198
0.07434672
0.07872117
0.08328981
0.08805698
0.09302682
0.09820331
0.10359018
0.10919096
0.11500891
0.12104703
0.12730801
0.13379425
0.14050782
0.14745044
0.15462349
0.16202795
0.16966442
0.17753308
0.18563371
0.19396566
0.20252781
0.21131861
0.22033605
0.22957764
0.23904042
0.24872096
0.25861534
0.26871916
0.27902755
0.28953515
0.30023614
0.31112422
0.32219264
0.33343420
0.34484126
0.35640576
0.36811922
0.37997279
0.39195721
0.40406291
0.41627994
0.42859808
0.44100680
0.45349532
0.46605262
0.47866747
0.49132847
0.50402407
0.51674261
0.52947233
0.54220141
0.55491803
0.56761037
0.58026663
0.59287512
0.60542423
0.61790250
0.63029864
0.64260155
0.65480039
0.66688456
0.67884378
0.69066805
0.70234777
0.71387370
0.72523698
0.73642923
0.74744248
0.75826927
0.76890261
0.77933605
0.78956367
0.79958011
0.80938057
0.81896083
0.82831728
0.83744689
0.84634725
0.85501655
0.86345357
0.87165772
0.87962895
0.88736780
0.89487533
0.90215313
0.90920324
0.91602813
0.92263065
0.92901397
0.93518155
0.94113704
0.94688428
0.95242722
0.95776992
0.96291648
0.96787106
0.97263788
0.97722118
0.98162524
0.98585430
0.98991245
0.99380337
0.99752987
1.00109316
1.00449170
1.00771965
1.01076518
1.01360963
1.01622904
1.01860147
1.02072257
1.02261139
1.02431015
1.02586141
1.02730277
1.02865865
1.02994071
1.03115259
1.03229089
1.03334847
1.03431750
1.03519082
1.03596253
1.03662824
1.03718497
1.03763107
1.03796599
1.03819007
1.03830437
1.03831052
1.03821058
1.03800698
1.03770249
1.03730021
1.03680369
1.03621696
1.03554475
1.03479278
1.03396806
1.03307955
1.03213884
1.03116136
1.03016780
1.02918595
1.02825260
1.02741499
1.02673065
1.02626420
1.02608034
1.02623402
1.02676115
1.02767284
1.02895398
1.03056636
1.03245603
1.03456292
1.03682922
1.03920421
1.04164600
1.04412127
1.04660400
1.04907408
1.05151603
1.05391794
1.05627064
1.05856714
1.06080214
1.06297175
1.06507318
1.06710457
1.06906487
1.07095366
1.07277110
1.07451784
1.07619492
1.07780371
1.07934591
1.08082341
1.08223833
1.08359290
1.08488949
1.08613052
1.08731847
1.08845580
1.08954499
1.09058844
1.09158851
1.09254746
1.09346745
1.09435054
1.09519863
1.09601355
1.09679692
1.09755029
1.09827503
1.09897239
1.09964349
1.10028932
1.10091078
1.10150861
1.10208348
1.10263593
1.10316638
1.10367512
1.10416227
1.10462778
1.10507132
1.10549222
1.10588937
1.10626108
1.10660490
1.10691736
1.10719378
1.10742785
1.10761135
1.10773363
1.10778126
1.10773742
1.10758150
1.10728856
1.10682896
1.10616802
1.10526586
1.10407738
1.10255254
1.10063671
1.09827124
1.09539408
1.09194012
1.08784109
1.08302431
1.07740982
1.07090523
1.06340077
1.05477841
1.04504527
1.03514366
1.02924421
1.02529598
1.02083210
1.01537735
1.00926206
1.00366369
1.00054213
0.99958681
1.00060264
1.00431999
1.00971010
1.01414979
1.01720069
1.01910417
1.02027080
1.02092430
1.02158830
1.02165833
1.02006347
1.01333075
0.99320316
0.94321317
0.83667813
0.67295356
0.50411938
0.36278735
0.25520442
0.17708079
0.12179445
0.08327754
0.05671407
0.03851926
0.02611520
0.01768628
0.01197107
0.00810128
0.00548311
0.00371235
0.00251471
0.00170446
0.00115605
0.00078464
0.00053292
0.00036220
0.00024632
0.00016761
0.00011411
0.00007773
0.00005296
0.00003610
0.00002461
0.00001678
0.00001144
0.00000781
0.00000532
0.00000363
0.00000248
0.00000169
0.00000115
0.00000079
0.00000054
0.00000037
0.00000025
0.00000017
0.00000012
0.00000008
0.00000005
0.00000004
0.00000002
0.00000002
0.00000001
0.00000001
0.00000001
0.00000000
0.00000000
0.00000000
0.00000000
0.00000000
0.00000000
0.00000000
0.00000000
0.00000000
0.00000000
0.00000000
0.00000000
0.00000000
0.00000000
0.00000000
0.00000000
0.00000000
0.00000000
0.00000000
0.00000000
0.00000000
0.00000000
0.00000000
0.00000000
0.00000000
0.00000000
0.00000000
0.00000000
0.00000000
0.00000000
0.00000000
0.00000000
0.00000000
0.00000000
0.00000000
0.00000000
0.00243296
0.00245516
0.00249968
0.00256677
0.00265681
0.00277031
0.00290790
0.00307034
0.00325851
0.00347343
0.00371626
0.00398827
0.00429088
0.00462563
0.00499421
0.00539844
0.00584028
0.00632182
0.00684530
0.00741310
0.00802773
0.00869186
0.00940829
0.01017997
0.01100998
0.01190155
0.01285804
0.01388297
0.01497998
0.01615285
0.01740548
0.01874191
0.02016631
0.02168295
0.02329623
0.02501066
0.02683084
0.02876148
0.03080734
0.03297331
0.03526432
0.03768534
0.04024143
0.04293765
0.04577910
0.04877089
0.05191810
0.05522583
0.05869912
0.06234297
0.06616231
0.07016197
0.07434672
0.07872117
0.08328981
0.08805698
0.09302682
0.09820330
0.10359018
0.10919096
0.11500891
0.12104702
0.12730800
0.13379424
0.14050781
0.14745044
0.15462348
0.16202794
0.16966440
0.17753307
0.18563370
0.19396564
0.20252779
0.21131859
0.22033603
0.22957761
0.23904039
0.24872093
0.25861530
0.26871912
0.27902751
0.28953511
0.30023609
0.31112417
0.32219258
0.33343414
0.34484119
0.35640568
0.36811914
0.37997270
0.39195712
0.40406280
0.41627983
0.42859796
0.44100667
0.45349518
0.46605246
0.47866730
0.49132829
0.50402388
0.51674241
0.52947211
0.54220118
0.55491779
0.56761011
0.58026637
0.59287484
0.60542394
0.61790220
0.63029832
0.64260123
0.65480006
0.66688423
0.67884344
0.69066772
0.70234745
0.71387339
0.72523670
0.73642898
0.74744228
0.75826913
0.76890255
0.77933609
0.78956384
0.79958045
0.80938111
0.81896162
0.82831838
0.83744837
0.84634920
0.85501907
0.86345678
0.87166175
0.87963397
0.88737400
0.89488293
0.90216236
0.90921438
0.91604148
0.92264654
0.92903275
0.93520359
0.94116275
0.94691405
0.95246148
0.95780908
0.96296098
0.96792136
0.97269449
0.97728474
0.98169659
0.98593469
0.99000374
0.99390842
0.99765302
1.00124076
1.00467251
1.00794453
1.01104529
1.01395150
1.01662479
1.01901736
1.02110929
1.02292637
1.02454874
1.02603425
1.02742809
1.02875494
1.03002482
1.03123416
1.03237540
1.03343820
1.03441249
1.03528993
1.03606415
1.03673069
1.03728672
1.03773077
1.03806252
1.03828250
1.03839190
1.03839239
1.03828603
1.03807516
1.03776235
1.03735043
1.03684252
1.03624211
1.03555322
1.03478054
1.03392983
1.03300829
1.03202535
1.03099374
1.02993115
1.02886265
1.02782372
1.02686354
1.02604692
1.02545206
1.02516123
1.02524563
1.02575137
1.02669212
1.02804743
1.02976637
1.03177796
1.03400676
1.03638468
1.03885614
1.04137830
1.04391893
1.04645403
1.04896561
1.05144014
1.05386737
1.05623950
1.05855065
1.06079643
1.06297368
1.06508020
1.06711463
1.06907630
1.07096514
1.07278157
1.07452645
1.07620100
1.07780675
1.07934551
1.08081927
1.08223022
1.08358067
1.08487303
1.08610977
1.08729340
1.08842642
1.08951131
1.09055051
1.09154637
1.09250118
1.09341710
1.09429618
1.09514036
1.09595142
1.09673102
1.09748067
1.09820175
1.09889549
1.09956301
1.10020528
1.10082316
1.10141740
1.10198864
1.10253738
1.10306403
1.10356885
1.10405196
1.10451325
1.10495239
1.10536870
1.10576108
1.10612783
1.10646653
1.10677378
1.10704496
1.10727392
1.10745260
1.10757062
1.10761486
1.10756898
1.10741292
1.10712250
1.10666901
1.10601893
1.10513382
1.10397042
1.10248087
1.10061334
1.09831271
1.09552152
1.09218088
1.08823132
1.08361328
1.07826746
1.07213553
1.06516491
1.05732609
1.04870281
1.03980140
1.03242739
1.02796701
1.02314754
1.01724730
1.01009805
1.00350639
1.00168613
1.00245372
1.00444263
1.00743867
1.01091778
1.01382237
1.01576250
1.01677223
1.01714652
1.01708302
1.01670022
1.01573681
1.01357991
1.00860751
0.99737748
0.97123210
0.90419385
0.74875649
0.55752068
0.39492000
0.27354750
0.18742757
0.12766876
0.08666215
0.05870098
0.03970925
0.02684200
0.01813821
0.01225649
0.00828387
0.00560111
0.00378919
0.00256502
0.00173753
0.00117784
0.00079900
0.00054240
0.00036845
0.00025044
0.00017033
0.00011590
0.00007890
0.00005373
0.00003660
0.00002494
0.00001700
0.00001159
0.00000790
0.00000538
0.00000367
0.00000250
0.00000171
0.00000116
0.00000079
0.00000054
0.00000037
0.00000025
0.00000017
0.00000012
0.00000008
0.00000005
0.00000004
0.00000003
0.00000002
0.00000001
0.00000001
0.00000001
0.00000000
0.00000000
0.00000000
0.00000000
0.00000000
0.00000000
0.00000000
0.00000000
0.00000000
0.00000000
0.00000000
0.00000000
0.00000000
0.00000000
0.00000000
0.00000000
0.00000000
0.00000000
0.00000000
0.00000000
0.00000000
0.00000000
0.00000000
0.00000000
0.00000000
0.00000000
0.00000000
0.00000000
0.00000000
0.00000000
0.00000000
0.00000000
0.00000000
0.00000000
0.00000000
0.00000000
0.00243296
0.00245516
0.00249968
0.00256677
0.00265681
0.00277031
0.00290790
0.00307034
0.00325851
0.00347343
0.00371626
0.00398827
0.00429088
0.00462563
0.00499421
0.00539844
0.00584028
0.00632182
0.00684530
0.00741310
0.00802773
0.00869186
0.00940829
0.01017997
0.01100998
0.01190155
0.01285804
0.01388297
0.01497998
0.01615285
0.01740548
0.01874191
0.02016631
0.02168295
0.02329623
0.02501066
0.02683084
0.02876148
0.03080734
0.03297331
0.03526432
0.03768534
0.04024143
0.04293765
0.04577910
0.04877089
0.05191810
0.05522583
0.05869912
0.06234297
0.06616230
0.07016197
0.07434672
0.07872117
0.08328981
0.08805697
0.09302681
0.09820330
0.10359017
0.10919095
0.11500890
0.12104701
0.12730799
0.13379423
0.14050780
0.14745042
0.15462347
0.16202792
0.16966439
0.17753305
0.18563368
0.19396561
0.20252776
0.21131856
0.22033599
0.22957757
0.23904035
0.24872088
0.25861525
0.26871907
0.27902745
0.28953504
0.30023602
0.31112409
0.32219249
0.33343404
0.34484109
0.35640557
0.36811901
0.37997256
0.39195697
0.40406264
0.41627965
0.42859777
0.44100647
0.45349496
0.46605223
0.47866705
0.49132802
0.50402360
0.51674210
0.52947179
0.54220084
0.55491743
0.56760973
0.58026597
0.59287442
0.60542350
0.61790174
0.63029785
0.64260075
0.65479957
0.66688373
0.67884294
0.69066723
0.70234697
0.71387293
0.72523628
0.73642861
0.74744197
0.75826891
0.76890245
0.77933614
0.78956408
0.79958092
0.80938188
0.81896276
0.82831998
0.83745054
0.84635205
0.85502275
0.86346148
0.87166767
0.87964134
0.88738310
0.89489408
0.90217592
0.90923074
0.91606109
0.92266988
0.92906035
0.93523600
0.94120054
0.94695782
0.95251183
0.95786663
0.96302633
0.96799516
0.97277743
0.97737765
0.98180058
0.98605133
0.99013549
0.99405912
0.99782871
1.00145073
1.00493051
1.00826957
1.01146095
1.01448107
1.01726395
1.01970467
1.02172944
1.02340650
1.02487762
1.02626109
1.02758241
1.02887611
1.03013689
1.03134911
1.03249881
1.03357147
1.03455451
1.03543837
1.03621630
1.03688394
1.03743874
1.03787963
1.03820662
1.03842052
1.03852271
1.03851498
1.03839933
1.03817797
1.03785322
1.03742749
1.03690334
1.03628348
1.03557088
1.03476887
1.03388134
1.03291303
1.03187004
1.03076082
1.02959788
1.02840078
1.02720091
1.02604808
1.02501723
1.02420979
1.02374022
1.02370937
1.02418001
1.02517005
1.02665049
1.02854831
1.03076053
1.03318430
1.03573560
1.03835321
1.04099476
1.04363121
1.04624238
1.04881390
1.05133531
1.05379885
1.05619876
1.05853078
1.06079184
1.06297981
1.06509338
1.06713188
1.06909524
1.07098384
1.07279850
1.07454039
1.07621100
1.07781207
1.07934557
1.08081365
1.08221860
1.08356283
1.08484882
1.08607911
1.08725626
1.08838280
1.08946124
1.09049406
1.09148362
1.09243223
1.09334205
1.09421515
1.09505346
1.09585876
1.09663272
1.09737682
1.09809243
1.09878078
1.09944295
1.10007990
1.10069246
1.10128135
1.10184717
1.10239039
1.10291139
1.10341040
1.10388747
1.10434250
1.10477512
1.10518462
1.10556990
1.10592928
1.10626039
1.10655989
1.10682330
1.10704464
1.10721612
1.10732773
1.10736683
1.10731773
1.10716120
1.10687413
1.10642914
1.10579439
1.10493348
1.10380567
1.10236620
1.10056706
1.09835786
1.09568719
1.09250403
1.08875953
1.08440915
1.07941559
1.07375367
1.06742053
1.06045576
1.05300201
1.04544078
1.03856654
1.03311556
1.02787538
1.02200321
1.01607116
1.01134127
1.00934571
1.00923662
1.01009508
1.01153743
1.01319609
1.01449559
1.01517136
1.01515285
1.01454303
1.01340331
1.01174847
1.00944716
1.00616707
1.00128166
0.99346927
0.97862169
0.94052851
0.82615602
0.62240414
0.43601078
0.29747741
0.20109662
0.13551774
0.09123923
0.06142242
0.04136045
0.02786322
0.01878062
0.01266638
0.00854837
0.00577328
0.00390196
0.00263920
0.00178645
0.00121015
0.00082036
0.00055651
0.00037777
0.00025659
0.00017438
0.00011857
0.00008065
0.00005488
0.00003736
0.00002543
0.00001732
0.00001180
0.00000804
0.00000547
0.00000373
0.00000254
0.00000173
0.00000118
0.00000080
0.00000055
0.00000037
0.00000025
0.00000017
0.00000012
0.00000008
0.00000005
0.00000004
0.00000003
0.00000002
0.00000001
0.00000001
0.00000001
0.00000000
0.00000000
0.00000000
0.00000000
0.00000000
0.00000000
0.00000000
0.00000000
0.00000000
0.00000000
0.00000000
0.00000000
0.00000000
0.00000000
0.00000000
0.00000000
0.00000000
0.00000000
0.00000000
0.00000000
0.00000000
0.00000000
0.00000000
0.00000000
0.00000000
0.00000000
0.00000000
0.00000000
0.00000000
0.00000000
0.00000000
0.00000000
0.00000000
0.00000000
0.00000000
0.00000000
0.00243296
0.00245516
0.00249968
0.00256677
0.00265681
0.00277031
0.00290790
0.00307034
0.00325851
0.00347343
0.00371626
0.00398827
0.00429088
0.00462563
0.00499421
0.00539844
0.00584028
0.00632182
0.00684530
0.00741310
0.00802773
0.00869186
0.00940829
0.01017997
0.01100998
0.01190155
0.01285804
0.01388297
0.01497998
0.01615285
0.01740548
0.01874191
0.02016631
0.02168295
0.02329623
0.02501066
0.02683084
0.02876147
0.03080734
0.03297331
0.03526432
0.03768534
0.04024143
0.04293765
0.04577910
0.04877088
0.05191810
0.05522583
0.05869912
0.06234297
0.06616230
0.07016197
0.07434671
0.07872116
0.08328980
0.08805697
0.09302681
0.09820329
0.10359017
0.10919094
0.11500889
0.12104700
0.12730798
0.13379422
0.14050778
0.14745041
0.15462345
0.16202790
0.16966436
0.17753302
0.18563365
0.19396558
0.20252772
0.21131852
0.22033595
0.22957753
0.23904029
0.24872082
0.25861518
0.26871899
0.27902737
0.28953495
0.30023592
0.31112398
0.32219238
0.33343391
0.34484095
0.35640542
0.36811885
0.37997238
0.39195677
0.40406243
0.41627942
0.42859752
0.44100620
0.45349467
0.46605192
0.47866672
0.49132767
0.50402322
0.51674170
0.52947136
0.54220039
0.55491695
0.56760923
0.58026544
0.59287387
0.60542292
0.61790114
0.63029723
0.64260011
0.65479891
0.66688307
0.67884228
0.69066657
0.70234633
0.71387232
0.72523570
0.73642810
0.74744155
0.75826860
0.76890229
0.77933617
0.78956436
0.79958151
0.80938285
0.81896422
0.82832202
0.83745331
0.84635571
0.85502749
0.86346753
0.87167529
0.87965085
0.88739486
0.89490849
0.90219345
0.90925191
0.91608647
0.92270010
0.92909609
0.93527798
0.94124950
0.94701454
0.95257707
0.95794115
0.96311091
0.96809055
0.97288443
0.97749716
0.98193375
0.98619982
0.99030186
0.99424755
0.99804605
1.00170820
1.00524620
1.00867219
1.01199383
1.01519747
1.01819320
1.02068256
1.02257035
1.02397837
1.02529179
1.02653410
1.02772901
1.02898703
1.03026335
1.03149099
1.03265864
1.03374771
1.03474352
1.03563606
1.03641865
1.03708735
1.03764021
1.03807670
1.03839731
1.03860326
1.03869616
1.03867790
1.03855050
1.03831595
1.03797626
1.03753333
1.03698901
1.03634509
1.03560329
1.03476528
1.03383271
1.03280722
1.03169063
1.03048543
1.02919614
1.02783246
1.02641570
1.02499051
1.02364188
1.02250795
1.02176196
1.02155452
1.02197270
1.02303885
1.02471495
1.02689242
1.02940976
1.03211660
1.03490849
1.03772149
1.04051847
1.04327749
1.04598496
1.04863187
1.05121200
1.05372087
1.05615533
1.05851315
1.06079292
1.06299387
1.06511576
1.06715884
1.06912374
1.07101146
1.07282331
1.07456087
1.07622594
1.07782055
1.07934688
1.08080725
1.08220410
1.08353997
1.08481743
1.08603909
1.08720756
1.08832545
1.08939531
1.09041963
1.09140081
1.09234117
1.09324289
1.09410804
1.09493855
1.09573622
1.09650267
1.09723942
1.09794779
1.09862899
1.09928408
1.09991399
1.10051952
1.10110134
1.10166000
1.10219596
1.10270951
1.10320085
1.10367000
1.10411680
1.10454083
1.10494138
1.10531734
1.10566705
1.10598817
1.10627748
1.10653064
1.10674192
1.10690385
1.10700689
1.10703903
1.10698538
1.10682777
1.10654442
1.10610961
1.10549358
1.10466248
1.10357863
1.10220102
1.10048612
1.09838906
1.09586514
1.09287174
1.08937075
1.08533163
1.08073567
1.07558238
1.06989989
1.06376349
1.05732428
1.05084784
1.04473805
1.03926083
1.03399656
1.02874990
1.02383222
1.01991649
1.01751894
1.01638851
1.01604831
1.01615885
1.01638812
1.01638173
1.01591715
1.01489450
1.01330216
1.01114743
1.00841989
1.00506462
1.00096225
0.99590100
0.98933440
0.97908159
0.95555424
0.88281094
0.68511690
0.47897959
0.32333255
0.21619180
0.14436115
0.09650341
0.06461859
0.04333963
0.02911069
0.01957863
0.01318291
0.00888567
0.00599493
0.00404823
0.00273597
0.00185056
0.00125264
0.00084851
0.00057514
0.00039009
0.00026473
0.00017975
0.00012210
0.00008297
0.00005641
0.00003836
0.00002609
0.00001775
0.00001208
0.00000822
0.00000559
0.00000381
0.00000259
0.00000176
0.00000120
0.00000082
0.00000056
0.00000038
0.00000026
0.00000018
0.00000012
0.00000008
0.00000006
0.00000004
0.00000003
0.00000002
0.00000001
0.00000001
0.00000001
0.00000000
0.00000000
0.00000000
0.00000000
0.00000000
0.00000000
0.00000000
0.00000000
0.00000000
0.00000000
0.00000000
0.00000000
0.00000000
0.00000000
0.00000000
0.00000000
0.00000000
0.00000000
0.00000000
0.00000000
0.00000000
0.00000000
0.00000000
0.00000000
0.00000000
0.00000000
0.00000000
0.00000000
0.00000000
0.00000000
0.00000000
0.00000000
0.00000000
0.00000000
0.00000000
0.00000000
0.00243296
0.00245516
0.00249968
0.00256677
0.00265681
0.00277031
0.00290790
0.00307034
0.00325851
0.00347343
0.00371626
0.00398827
0.00429088
0.00462563
0.00499421
0.00539844
0.00584028
0.00632182
0.00684530
0.00741310
0.00802773
0.00869186
0.00940829
0.01017997
0.01100998
0.01190155
0.01285804
0.01388297
0.01497998
0.01615285
0.01740548
0.01874191
0.02016631
0.02168295
0.02329623
0.02501066
0.02683084
0.02876147
0.03080734
0.03297331
0.03526432
0.03768534
0.04024143
0.04293765
0.04577910
0.04877088
0.05191810
0.05522583
0.05869912
0.06234296
0.06616230
0.07016197
0.07434671
0.07872116
0.08328980
0.08805696
0.09302680
0.09820328
0.10359016
0.10919093
0.11500888
0.12104699
0.12730797
0.13379420
0.14050777
0.14745039
0.15462343
0.16202788
0.16966433
0.17753299
0.18563361
0.19396554
0.20252768
0.21131847
0.22033589
0.22957746
0.23904023
0.24872074
0.25861510
0.26871890
0.27902726
0.28953484
0.30023580
0.31112384
0.32219223
0.33343375
0.34484077
0.35640523
0.36811864
0.37997216
0.39195653
0.40406216
0.41627914
0.42859722
0.44100587
0.45349431
0.46605154
0.47866631
0.49132723
0.50402275
0.51674120
0.52947083
0.54219983
0.55491636
0.56760860
0.58026477
0.59287317
0.60542220
0.61790039
0.63029645
0.64259931
0.65479810
0.66688224
0.67884144
0.69066574
0.70234552
0.71387154
0.72523498
0.73642744
0.74744100
0.75826819
0.76890205
0.77933617
0.78956465
0.79958216
0.80938397
0.81896591
0.82832443
0.83745659
0.84636006
0.85503315
0.86347475
0.87168441
0.87966224
0.88740895
0.89492578
0.90221449
0.90927734
0.91611698
0.92273645
0.92913910
0.93532850
0.94130844
0.94708282
0.95265560
0.95803084
0.96321261
0.96820509
0.97301263
0.97763985
0.98209192
0.98637482
0.99049581
0.99446402
0.99829125
1.00199305
1.00559006
1.00910970
1.01258003
1.01600893
1.01934640
1.02183933
1.02312685
1.02427367
1.02542862
1.02662464
1.02791033
1.02914288
1.03040133
1.03166067
1.03285600
1.03396770
1.03498013
1.03588305
1.03667065
1.03733992
1.03788978
1.03832047
1.03863311
1.03882937
1.03891116
1.03888052
1.03873940
1.03848962
1.03813277
1.03767020
1.03710297
1.03643184
1.03565719
1.03477892
1.03379630
1.03270762
1.03150983
1.03019817
1.02876620
1.02720771
1.02552302
1.02373727
1.02193420
1.02030736
1.01914302
1.01868301
1.01902754
1.02019930
1.02217161
1.02477926
1.02774827
1.03084549
1.03394768
1.03700032
1.03998187
1.04288382
1.04570254
1.04843615
1.05108358
1.05364424
1.05611794
1.05850486
1.06080548
1.06302058
1.06515121
1.06719864
1.06916439
1.07105015
1.07285780
1.07458938
1.07624711
1.07783330
1.07935040
1.08080093
1.08218753
1.08351283
1.08477955
1.08599037
1.08714799
1.08825506
1.08931419
1.09032790
1.09129863
1.09222870
1.09312033
1.09397559
1.09479641
1.09558458
1.09634173
1.09706933
1.09776872
1.09844107
1.09908740
1.09970860
1.10030543
1.10087852
1.10142836
1.10195536
1.10245975
1.10294166
1.10340107
1.10383775
1.10425125
1.10464083
1.10500535
1.10534319
1.10565206
1.10592885
1.10616941
1.10636827
1.10651837
1.10661069
1.10663396
1.10657424
1.10641458
1.10613474
1.10571095
1.10511579
1.10431831
1.10328429
1.10197683
1.10035731
1.09838661
1.09602685
1.09324350
1.09000810
1.08630157
1.08211863
1.07747364
1.07240865
1.06700416
1.06138994
1.05575091
1.05029772
1.04516413
1.04026373
1.03558279
1.03131157
1.02775932
1.02514862
1.02337741
1.02220077
1.02135776
1.02057982
1.01961096
1.01825590
1.01639500
1.01397169
1.01096897
1.00738998
1.00324551
0.99854007
0.99323887
0.98709651
0.97887660
0.96287084
0.91344591
0.73530501
0.51709191
0.34739130
0.23074287
0.15317821
0.10193113
0.06802262
0.04551131
0.03051577
0.02049755
0.01378851
0.00928685
0.00626151
0.00422565
0.00285411
0.00192921
0.00130494
0.00088325
0.00059818
0.00040534
0.00027481
0.00018640
0.00012648
0.00008585
0.00005830
0.00003959
0.00002690
0.00001828
0.00001242
0.00000844
0.00000574
0.00000390
0.00000265
0.00000180
0.00000123
0.00000083
0.00000057
0.00000039
0.00000026
0.00000018
0.00000012
0.00000008
0.00000006
0.00000004
0.00000003
0.00000002
0.00000001
0.00000001
0.00000001
0.00000000
0.00000000
0.00000000
0.00000000
0.00000000
0.00000000
0.00000000
0.00000000
0.00000000
0.00000000
0.00000000
0.00000000
0.00000000
0.00000000
0.00000000
0.00000000
0.00000000
0.00000000
0.00000000
0.00000000
0.00000000
0.00000000
0.00000000
0.00000000
0.00000000
0.00000000
0.00000000
0.00000000
0.00000000
0.00000000
0.00000000
0.00000000
0.00000000
0.00000000
0.00000000
0.00000000
0.00243296
0.00245516
0.00249968
0.00256677
0.00265681
0.00277031
0.00290790
0.00307034
0.00325851
0.00347343
0.00371626
0.00398827
0.00429088
0.00462563
0.00499421
0.00539844
0.00584028
0.00632182
0.00684530
0.00741310
0.00802773
0.00869186
0.00940829
0.01017997
0.01100998
0.01190155
0.01285804
0.01388297
0.01497998
0.01615285
0.01740548
0.01874191
0.02016631
0.02168295
0.02329623
0.02501066
0.02683084
0.02876147
0.03080734
0.03297331
0.03526431
0.03768534
0.04024143
0.04293765
0.04577910
0.04877088
0.05191810
0.05522582
0.05869911
0.06234296
0.06616229
0.07016196
0.07434671
0.07872115
0.08328979
0.08805695
0.09302679
0.09820328
0.10359015
0.10919092
0.11500887
0.12104698
0.12730795
0.13379418
0.14050774
0.14745036
0.15462340
0.16202784
0.16966430
0.17753295
0.18563357
0.19396549
0.20252763
0.21131841
0.22033582
0.22957739
0.23904014
0.24872065
0.25861500
0.26871879
0.27902714
0.28953471
0.30023565
0.31112369
0.32219206
0.33343356
0.34484056
0.35640500
0.36811840
0.37997189
0.39195624
0.40406185
0.41627880
0.42859685
0.44100547
0.45349389
0.46605108
0.47866582
0.49132671
0.50402219
0.51674061
0.52947020
0.54219915
0.55491565
0.56760785
0.58026399
0.59287235
0.60542134
0.61789949
0.63029552
0.64259835
0.65479712
0.66688125
0.67884044
0.69066474
0.70234454
0.71387060
0.72523409
0.73642664
0.74744031
0.75826765
0.76890172
0.77933610
0.78956491
0.79958285
0.80938519
0.81896778
0.82832712
0.83746027
0.84636497
0.85503953
0.86348294
0.87169477
0.87967520
0.88742499
0.89494548
0.90223850
0.90930637
0.91615184
0.92277800
0.92918828
0.93538631
0.94137590
0.94716097
0.95274550
0.95813347
0.96332891
0.96833591
0.97315869
0.97780181
0.98227039
0.98657053
0.99070984
0.99469834
0.99854960
1.00228262
1.00592489
1.00951576
1.01310117
1.01674064
1.02023644
1.02196533
1.02317845
1.02428733
1.02546609
1.02664460
1.02788660
1.02915138
1.03054016
1.03185477
1.03309390
1.03423454
1.03526565
1.03617934
1.03697131
1.03763998
1.03818539
1.03860874
1.03891186
1.03909691
1.03916616
1.03912176
1.03896562
1.03869932
1.03832403
1.03784048
1.03724892
1.03654905
1.03573992
1.03481978
1.03378566
1.03263278
1.03135353
1.02993574
1.02836033
1.02659895
1.02461508
1.02238330
1.01994491
1.01757439
1.01579832
1.01500359
1.01525542
1.01654303
1.01893686
1.02221290
1.02584293
1.02944968
1.03292266
1.03624419
1.03942647
1.04248192
1.04541978
1.04824622
1.05096566
1.05358154
1.05609682
1.05851420
1.06083625
1.06306543
1.06520419
1.06725497
1.06922021
1.07110239
1.07290402
1.07462767
1.07627597
1.07785159
1.07935725
1.08079572
1.08216980
1.08348229
1.08473601
1.08593376
1.08707832
1.08817240
1.08921866
1.09021967
1.09117789
1.09209567
1.09297525
1.09381870
1.09462796
1.09540482
1.09615088
1.09686762
1.09755632
1.09821815
1.09885408
1.09946496
1.10005150
1.10061427
1.10115371
1.10167013
1.10216374
1.10263457
1.10308253
1.10350734
1.10390850
1.10428521
1.10463634
1.10496027
1.10525477
1.10551686
1.10574259
1.10592678
1.10606282
1.10614229
1.10615471
1.10608719
1.10592413
1.10564700
1.10523411
1.10466062
1.10389866
1.10291768
1.10168509
1.10016724
1.09833074
1.09614420
1.09358038
1.09061886
1.08724921
1.08347476
1.07931720
1.07482164
1.07006163
1.06514124
1.06018982
1.05533871
1.05067946
1.04623848
1.04205905
1.03826259
1.03500020
1.03236754
1.03031255
1.02868700
1.02729740
1.02592863
1.02436854
1.02243442
1.01998991
1.01695184
1.01329115
1.00903125
1.00423889
0.99899817
0.99335581
0.98718947
0.97973585
0.96707237
0.92762547
0.76889061
0.54550064
0.36656746
0.24307821
0.16110587
0.10708577
0.07141582
0.04776665