# vtk DataFile Version 3.0
Concentration output
ASCII
DATASET STRUCTURED_POINTS
DIMENSIONS 398 98 1
ORIGIN 0 0 0
SPACING 0.03 0.03 1.0
POINT_DATA 39004
SCALARS Variable float 1
LOOKUP_TABLE default
0.00000157
0.00000165
0.00000183
0.00000210
0.00000247
0.00000298
0.00000363
0.00000445
0.00000548
0.00000677
0.00000836
0.00001031
0.00001271
0.00001565
0.00001923
0.00002359
0.00002887
0.00003527
0.00004299
0.00005230
0.00006350
0.00007693
0.00009300
0.00011219
0.00013506
0.00016225
0.00019451
0.00023269
0.00027778
0.00033091
0.00039339
0.00046667
0.00055246
0.00065264
0.00076939
0.00090514
0.00106262
0.00124490
0.00145543
0.00169804
0.00197699
0.00229701
0.00266332
0.00308168
0.00355843
0.00410050
0.00471546
0.00541154
0.00619770
0.00708360
0.00807966
0.00919707
0.01044782
0.01184469
0.01340124
0.01513185
0.01705168
0.01917664
0.02152339
0.02410927
0.02695227
0.03007095
0.03348438
0.03721203
0.04127373
0.04568949
0.05047940
0.05566355
0.06126178
0.06729365
0.07377817
0.08073369
0.08817771
0.09612669
0.10459586
0.11359905
0.12314849
0.13325466
0.14392605
0.15516905
0.16698776
0.17938387
0.19235648
0.20590204
0.22001423
0.23468388
0.24989894
0.26564443
0.28190245
0.29865221
0.31587009
0.33352970
0.35160201
0.37005545
0.38885613
0.40796796
0.42735290
0.44697118
0.46678155
0.48674151
0.50680766
0.52693590
0.54708179
0.56720083
0.58724873
0.60718175
0.62695697
0.64653254
0.66586800
0.68492450
0.70366503
0.72205464
0.74006065
0.75765278
0.77480332
0.79148721
0.80768216
0.82336870
0.83853019
0.85315284
0.86722569
0.88074054
0.89369189
0.90607680
0.91789484
0.92914786
0.93983990
0.94997693
0.95956672
0.96861858
0.97714312
0.98515205
0.99265789
0.99967373
1.00621295
1.01228898
1.01791502
1.02310378
1.02786729
1.03221664
1.03616187
1.03971177
1.04287391
1.04565458
1.04805891
1.05009099
1.05175417
1.05305129
1.05398498
1.05455788
1.05477276
1.05463240
1.05413924
1.05329485
1.05209960
1.05055323
1.04865791
1.04642592
1.04389444
1.04114779
1.03834026
1.03570034
1.03348891
1.03191176
1.03102729
1.03069141
1.03057382
1.03024885
1.02932369
1.02753946
1.02481742
1.02124624
1.01701989
1.01236147
1.00747462
1.00252995
0.99766613
0.99295176
0.98801131
0.97963328
0.95039019
0.83514870
0.61115258
0.41478988
0.27575265
0.18297219
0.12193230
0.08175957
0.05518805
0.03749992
0.02564611
0.01764915
0.01221888
0.00850803
0.00595647
0.00419151
0.00296361
0.00210462
0.00150056
0.00107369
0.00077066
0.00055466
0.00040012
0.00028918
0.00020933
0.00015170
0.00011003
0.00007985
0.00005797
0.00004209
0.00003055
0.00002217
0.00001608
0.00001165
0.00000844
0.00000611
0.00000442
0.00000319
0.00000230
0.00000166
0.00000119
0.00000086
0.00000062
0.00000044
0.00000032
0.00000023
0.00000016
0.00000011
0.00000008
0.00000006
0.00000004
0.00000003
0.00000002
0.00000001
0.00000001
0.00000001
0.00000001
0.00000000
0.00000000
0.00000000
0.00000000
0.00000000
0.00000000
0.00000000
0.00000000
0.00000000
0.00000000
0.00000000
0.00000000
0.00000000
0.00000000
0.00000000
0.00000000
0.00000000
0.00000000
0.00000000
0.00000000
0.00000000
0.00000000
0.00000000
0.00000000
0.00000000
0.00000000
0.00000000
0.00000000
0.00000000
0.00000000
0.00000000
0.00000000
0.00000000
0.00000000
0.00000000
0.00000000
0.00000000
0.00000000
0.00000000
0.00000000
0.00000000
0.00000000
0.00000000
0.00000000
0.00000000
0.00000000
0.00000000
0.00000000
0.00000000
0.00000000
0.00000000
0.00000000
0.00000000
0.00000000
0.00000000
0.00000000
0.00000000
0.00000000
0.00000000
0.00000000
0.00000000
0.00000000
0.00000000
0.00000000
0.00000000
0.00000000
0.00000000
0.00000000
0.00000000
0.00000000
0.00000000
0.00000000
0.00000000
0.00000000
0.00000000
0.00000000
0.00000000
0.00000000
0.00000000
0.00000000
0.00000000
0.00000000
0.00000000
0.00000000
0.00000000
0.00000000
0.00000000
0.00000000
0.00000000
0.00000000
0.00000000
0.00000000
0.00000000
0.00000000
0.00000000
0.00000000
0.00000000
0.00000000
0.00000000
0.00000000
0.00000000
0.00000000
0.00000000
0.00000000
0.00000000
0.00000000
0.00000000
0.00000000
0.00000000
0.00000000
0.00000000
0.00000000
0.00000000
0.00000000
0.00000000
0.00000000
0.00000000
0.00000000
0.00000000
0.00000000
0.00000000
0.00000000
0.00000000
0.00000000
0.00000000
0.00000000
0.00000000
0.00000000
0.00000000
0.00000000
0.00000000
0.00000000
0.00000000
0.00000000
0.00000000
0.00000000
0.00000000
0.00000000
0.00000000
0.00000000
0.00000000
0.00000000
0.00000000
0.00000000
0.00000000
0.00000000
0.00000000
0.00000000
0.00000000
0.00000000
0.00000000
0.00000000
0.00000000
0.00000000
0.00000000
0.00000000
0.00000000
0.00000000
0.00000000
0.00000000
0.00000000
0.00000157
0.00000165
0.00000183
0.00000210
0.00000247
0.00000298
0.00000363
0.00000445
0.00000548
0.00000677
0.00000836
0.00001031
0.00001271
0.00001565
0.00001923
0.00002359
0.00002887
0.00003527
0.00004299
0.00005230
0.00006350
0.00007693
0.00009300
0.00011219
0.00013506
0.00016225
0.00019451
0.00023269
0.00027778
0.00033091
0.00039339
0.00046667
0.00055246
0.00065264
0.00076939
0.00090514
0.00106262
0.00124490
0.00145543
0.00169804
0.00197699
0.00229701
0.00266332
0.00308168
0.00355843
0.00410050
0.00471546
0.00541154
0.00619770
0.00708360
0.00807966
0.00919707
0.01044782
0.01184469
0.01340124
0.01513185
0.01705168
0.01917664
0.02152339
0.02410927
0.02695227
0.03007095
0.03348438
0.03721203
0.04127373
0.04568949
0.05047940
0.05566355
0.06126178
0.06729365
0.07377817
0.08073369
0.08817771
0.09612669
0.10459586
0.11359905
0.12314849
0.13325466
0.14392605
0.15516905
0.16698776
0.17938387
0.19235648
0.20590204
0.22001423
0.23468388
0.24989894
0.26564443
0.28190245
0.29865221
0.31587009
0.33352970
0.35160201
0.37005545
0.38885613
0.40796796
0.42735290
0.44697118
0.46678154
0.48674151
0.50680765
0.52693589
0.54708179
0.56720082
0.58724873
0.60718175
0.62695696
0.64653253
0.66586799
0.68492449
0.70366502
0.72205464
0.74006065
0.75765278
0.77480331
0.79148720
0.80768216
0.82336870
0.83853019
0.85315285
0.86722571
0.88074056
0.89369191
0.90607684
0.91789489
0.92914794
0.93984000
0.94997707
0.95956692
0.96861884
0.97714346
0.98515251
0.99265849
0.99967452
1.00621400
1.01229035
1.01791680
1.02310609
1.02787028
1.03222050
1.03616683
1.03971816
1.04288212
1.04566513
1.04807246
1.05010843
1.05177669
1.05308047
1.05402294
1.05460750
1.05483789
1.05471806
1.05425180
1.05344182
1.05228880
1.05079067
1.04894361
1.04674753
1.04422028
1.04142639
1.03851844
1.03576808
1.03352488
1.03209015
1.03157571
1.03181607
1.03237946
1.03269688
1.03225528
1.03072757
1.02802903
1.02430306
1.01982808
1.01489011
1.00971013
1.00444062
0.99918330
0.99395274
0.98827215
0.97870506
0.94667263
0.82139738
0.59799356
0.40605956
0.27060248
0.18005272
0.12030180
0.08085306
0.05468370
0.03721855
0.02548854
0.01756052
0.01216881
0.00847962
0.00594028
0.00418226
0.00295830
0.00210156
0.00149879
0.00107266
0.00077007
0.00055431
0.00039992
0.00028907
0.00020926
0.00015166
0.00011001
0.00007984
0.00005796
0.00004208
0.00003055
0.00002217
0.00001608
0.00001165
0.00000844
0.00000611
0.00000442
0.00000319
0.00000230
0.00000166
0.00000119
0.00000086
0.00000062
0.00000044
0.00000032
0.00000023
0.00000016
0.00000011
0.00000008
0.00000006
0.00000004
0.00000003
0.00000002
0.00000001
0.00000001
0.00000001
0.00000001
0.00000000
0.00000000
0.00000000
0.00000000
0.00000000
0.00000000
0.00000000
0.00000000
0.00000000
0.00000000
0.00000000
0.00000000
0.00000000
0.00000000
0.00000000
0.00000000
0.00000000
0.00000000
0.00000000
0.00000000
0.00000000
0.00000000
0.00000000
0.00000000
0.00000000
0.00000000
0.00000000
0.00000000
0.00000000
0.00000000
0.00000000
0.00000000
0.00000000
0.00000000
0.00000000
0.00000000
0.00000000
0.00000000
0.00000000
0.00000000
0.00000000
0.00000000
0.00000000
0.00000000
0.00000000
0.00000000
0.00000000
0.00000000
0.00000000
0.00000000
0.00000000
0.00000000
0.00000000
0.00000000
0.00000000
0.00000000
0.00000000
0.00000000
0.00000000
0.00000000
0.00000000
0.00000000
0.00000000
0.00000000
0.00000000
0.00000000
0.00000000
0.00000000
0.00000000
0.00000000
0.00000000
0.00000000
0.00000000
0.00000000
0.00000000
0.00000000
0.00000000
0.00000000
0.00000000
0.00000000
0.00000000
0.00000000
0.00000000
0.00000000
0.00000000
0.00000000
0.00000000
0.00000000
0.00000000
0.00000000
0.00000000
0.00000000
0.00000000
0.00000000
0.00000000
0.00000000
0.00000000
0.00000000
0.00000000
0.00000000
0.00000000
0.00000000
0.00000000
0.00000000
0.00000000
0.00000000
0.00000000
0.00000000
0.00000000
0.00000000
0.00000000
0.00000000
0.00000000
0.00000000
0.00000000
0.00000000
0.00000000
0.00000000
0.00000000
0.00000000
0.00000000
0.00000000
0.00000000
0.00000000
0.00000000
0.00000000
0.00000000
0.00000000
0.00000000
0.00000000
0.00000000
0.00000000
0.00000000
0.00000000
0.00000000
0.00000000
0.00000000
0.00000000
0.00000000
0.00000000
0.00000000
0.00000000
0.00000000
0.00000000
0.00000000
0.00000000
0.00000000
0.00000000
0.00000000
0.00000000
0.00000000
0.00000000
0.00000000
0.00000000
0.00000000
0.00000000
0.00000000
0.00000000
0.00000000
0.00000000
0.00000000
0.00000157
0.00000165
0.00000183
0.00000210
0.00000247
0.00000298
0.00000363
0.00000445
0.00000548
0.00000677
0.00000836
0.00001031
0.00001271
0.00001565
0.00001923
0.00002359
0.00002887
0.00003527
0.00004299
0.00005230
0.00006350
0.00007693
0.00009300
0.00011219
0.00013506
0.00016225
0.00019451
0.00023269
0.00027778
0.00033091
0.00039339
0.00046667
0.00055246
0.00065264
0.00076939
0.00090514
0.00106262
0.00124490
0.00145543
0.00169804
0.00197699
0.00229701
0.00266332
0.00308168
0.00355843
0.00410050
0.00471546
0.00541154
0.00619770
0.00708360
0.00807966
0.00919707
0.01044782
0.01184469
0.01340124
0.01513185
0.01705168
0.01917664
0.02152339
0.02410927
0.02695227
0.03007095
0.03348438
0.03721203
0.04127373
0.04568949
0.05047940
0.05566355
0.06126178
0.06729365
0.07377817
0.08073369
0.08817771
0.09612669
0.10459586
0.11359905
0.12314849
0.13325466
0.14392605
0.15516905
0.16698776
0.17938387
0.19235648
0.20590204
0.22001423
0.23468388
0.24989894
0.26564442
0.28190244
0.29865221
0.31587009
0.33352970
0.35160200
0.37005545
0.38885612
0.40796795
0.42735289
0.44697117
0.46678154
0.48674150
0.50680765
0.52693589
0.54708178
0.56720081
0.58724872
0.60718174
0.62695695
0.64653252
0.66586799
0.68492448
0.70366501
0.72205463
0.74006064
0.75765277
0.77480331
0.79148720
0.80768215
0.82336870
0.83853020
0.85315286
0.86722573
0.88074060
0.89369196
0.90607691
0.91789499
0.92914808
0.93984020
0.94997734
0.95956728
0.96861932
0.97714412
0.98515338
0.99265965
0.99967605
1.00621600
1.01229297
1.01792022
1.02311054
1.02787605
1.03222796
1.03617644
1.03973052
1.04289801
1.04568553
1.04809866
1.05014213
1.05182013
1.05313664
1.05409590
1.05470270
1.05496267
1.05488217
1.05446782
1.05372521
1.05265680
1.05125879
1.04951781
1.04740989
1.04490939
1.04202282
1.03887400
1.03581848
1.03342267
1.03222640
1.03247916
1.03398225
1.03606339
1.03780725
1.03843365
1.03746281
1.03478557
1.03067466
1.02563044
1.02010357
1.01435110
1.00846881
1.00246226
0.99620344
0.98892018
0.97643225
0.93780164
0.79284177
0.57219420
0.38940329
0.26085736
0.17455670
0.11723858
0.07914973
0.05373513
0.03668852
0.02519114
0.01739291
0.01207393
0.00842567
0.00590949
0.00416461
0.00294816
0.00209571
0.00149541
0.00107071
0.00076893
0.00055365
0.00039953
0.00028884
0.00020913
0.00015158
0.00010996
0.00007981
0.00005795
0.00004207
0.00003054
0.00002216
0.00001608
0.00001165
0.00000844
0.00000611
0.00000442
0.00000319
0.00000230
0.00000166
0.00000119
0.00000086
0.00000062
0.00000044
0.00000032
0.00000023
0.00000016
0.00000011
0.00000008
0.00000006
0.00000004
0.00000003
0.00000002
0.00000001
0.00000001
0.00000001
0.00000001
0.00000000
0.00000000
0.00000000
0.00000000
0.00000000
0.00000000
0.00000000
0.00000000
0.00000000
0.00000000
0.00000000
0.00000000
0.00000000
0.00000000
0.00000000
0.00000000
0.00000000
0.00000000
0.00000000
0.00000000
0.00000000
0.00000000
0.00000000
0.00000000
0.00000000
0.00000000
0.00000000
0.00000000
0.00000000
0.00000000
0.00000000
0.00000000
0.00000000
0.00000000
0.00000000
0.00000000
0.00000000
0.00000000
0.00000000
0.00000000
0.00000000
0.00000000
0.00000000
0.00000000
0.00000000
0.00000000
0.00000000
0.00000000
0.00000000
0.00000000
0.00000000
0.00000000
0.00000000
0.00000000
0.00000000
0.00000000
0.00000000
0.00000000
0.00000000
0.00000000
0.00000000
0.00000000
0.00000000
0.00000000
0.00000000
0.00000000
0.00000000
0.00000000
0.00000000
0.00000000
0.00000000
0.00000000
0.00000000
0.00000000
0.00000000
0.00000000
0.00000000
0.00000000
0.00000000
0.00000000
0.00000000
0.00000000
0.00000000
0.00000000
0.00000000
0.00000000
0.00000000
0.00000000
0.00000000
0.00000000
0.00000000
0.00000000
0.00000000
0.00000000
0.00000000
0.00000000
0.00000000
0.00000000
0.00000000
0.00000000
0.00000000
0.00000000
0.00000000
0.00000000
0.00000000
0.00000000
0.00000000
0.00000000
0.00000000
0.00000000
0.00000000
0.00000000
0.00000000
0.00000000
0.00000000
0.00000000
0.00000000
0.00000000
0.00000000
0.00000000
0.00000000
0.00000000
0.00000000
0.00000000
0.00000000
0.00000000
0.00000000
0.00000000
0.00000000
0.00000000
0.00000000
0.00000000
0.00000000
0.00000000
0.00000000
0.00000000
0.00000000
0.00000000
0.00000000
0.00000000
0.00000000
0.00000000
0.00000000
0.00000000
0.00000000
0.00000000
0.00000000
0.00000000
0.00000000
0.00000000
0.00000000
0.00000000
0.00000000
0.00000000
0.00000000
0.00000000
0.00000000
0.00000000
0.00000000
0.00000000
0.00000000
0.00000157
0.00000165
0.00000183
0.00000210
0.00000247
0.00000298
0.00000363
0.00000445
0.00000548
0.00000677
0.00000836
0.00001031
0.00001271
0.00001565
0.00001923
0.00002359
0.00002887
0.00003527
0.00004299
0.00005230
0.00006350
0.00007693
0.00009300
0.00011219
0.00013506
0.00016225
0.00019451
0.00023269
0.00027778
0.00033091
0.00039339
0.00046667
0.00055246
0.00065264
0.00076939
0.00090514
0.00106262
0.00124490
0.00145543
0.00169804
0.00197699
0.00229701
0.00266332
0.00308168
0.00355843
0.00410050
0.00471546
0.00541154
0.00619770
0.00708360
0.00807966
0.00919707
0.01044782
0.01184469
0.01340124
0.01513185
0.01705168
0.01917664
0.02152339
0.02410927
0.02695227
0.03007095
0.03348438
0.03721203
0.04127373
0.04568949
0.05047940
0.05566355
0.06126178
0.06729365
0.07377817
0.08073369
0.08817771
0.09612669
0.10459586
0.11359904
0.12314849
0.13325466
0.14392605
0.15516905
0.16698776
0.17938386
0.19235647
0.20590204
0.22001423
0.23468388
0.24989894
0.26564442
0.28190244
0.29865220
0.31587008
0.33352969
0.35160200
0.37005544
0.38885611
0.40796794
0.42735288
0.44697117
0.46678153
0.48674149
0.50680764
0.52693588
0.54708177
0.56720080
0.58724870
0.60718173
0.62695694
0.64653251
0.66586797
0.68492447
0.70366500
0.72205461
0.74006063
0.75765276
0.77480330
0.79148719
0.80768215
0.82336870
0.83853020
0.85315288
0.86722575
0.88074064
0.89369203
0.90607701
0.91789513
0.92914827
0.93984046
0.94997771
0.95956778
0.96862000
0.97714502
0.98515459
0.99266126
0.99967818
1.00621881
1.01229666
1.01792504
1.02311682
1.02788420
1.03223852
1.03619008
1.03974808
1.04292057
1.04571448
1.04813581
1.05018982
1.05188145
1.05321570
1.05419820
1.05483571
1.05513649
1.05511047
1.05476880
1.05412245
1.05317915
1.05193766
1.05037795
1.04844706
1.04604649
1.04304909
1.03944279
1.03569471
1.03280907
1.03183371
1.03328947
1.03697141
1.04174873
1.04599407
1.04848914
1.04849451
1.04579401
1.04088028
1.03475993
1.02825866
1.02168539
1.01498753
1.00795133
1.00014327
0.99011229
0.97160012
0.91871307
0.74821772
0.53573006
0.36652222
0.24766376
0.16715518
0.11311761
0.07685593
0.05245459
0.03597068
0.02478691
0.01716424
0.01194400
0.00835154
0.00586704
0.00414022
0.00293410
0.00208759
0.00149071
0.00106798
0.00076735
0.00055273
0.00039899
0.00028853
0.00020895
0.00015148
0.00010990
0.00007978
0.00005793
0.00004206
0.00003054
0.00002216
0.00001607
0.00001165
0.00000844
0.00000611
0.00000442
0.00000319
0.00000230
0.00000166
0.00000119
0.00000086
0.00000062
0.00000044
0.00000032
0.00000023
0.00000016
0.00000011
0.00000008
0.00000006
0.00000004
0.00000003
0.00000002
0.00000001
0.00000001
0.00000001
0.00000001
0.00000000
0.00000000
0.00000000
0.00000000
0.00000000
0.00000000
0.00000000
0.00000000
0.00000000
0.00000000
0.00000000
0.00000000
0.00000000
0.00000000
0.00000000
0.00000000
0.00000000
0.00000000
0.00000000
0.00000000
0.00000000
0.00000000
0.00000000
0.00000000
0.00000000
0.00000000
0.00000000
0.00000000
0.00000000
0.00000000
0.00000000
0.00000000
0.00000000
0.00000000
0.00000000
0.00000000
0.00000000
0.00000000
0.00000000
0.00000000
0.00000000
0.00000000
0.00000000
0.00000000
0.00000000
0.00000000
0.00000000
0.00000000
0.00000000
0.00000000
0.00000000
0.00000000
0.00000000
0.00000000
0.00000000
0.00000000
0.00000000
0.00000000
0.00000000
0.00000000
0.00000000
0.00000000
0.00000000
0.00000000
0.00000000
0.00000000
0.00000000
0.00000000
0.00000000
0.00000000
0.00000000
0.00000000
0.00000000
0.00000000
0.00000000
0.00000000
0.00000000
0.00000000
0.00000000
0.00000000
0.00000000
0.00000000
0.00000000
0.00000000
0.00000000
0.00000000
0.00000000
0.00000000
0.00000000
0.00000000
0.00000000
0.00000000
0.00000000
0.00000000
0.00000000
0.00000000
0.00000000
0.00000000
0.00000000
0.00000000
0.00000000
0.00000000
0.00000000
0.00000000
0.00000000
0.00000000
0.00000000
0.00000000
0.00000000
0.00000000
0.00000000
0.00000000
0.00000000
0.00000000
0.00000000
0.00000000
0.00000000
0.00000000
0.00000000
0.00000000
0.00000000
0.00000000
0.00000000
0.00000000
0.00000000
0.00000000
0.00000000
0.00000000
0.00000000
0.00000000
0.00000000
0.00000000
0.00000000
0.00000000
0.00000000
0.00000000
0.00000000
0.00000000
0.00000000
0.00000000
0.00000000
0.00000000
0.00000000
0.00000000
0.00000000
0.00000000
0.00000000
0.00000000
0.00000000
0.00000000
0.00000000
0.00000000
0.00000000
0.00000000
0.00000000
0.00000000
0.00000000
0.00000000
0.00000000
0.00000000
0.00000000
0.00000157
0.00000165
0.00000183
0.00000210
0.00000247
0.00000298
0.00000363
0.00000445
0.00000548
0.00000677
0.00000836
0.00001031
0.00001271
0.00001565
0.00001923
0.00002359
0.00002887
0.00003527
0.00004299
0.00005230
0.00006350
0.00007693
0.00009300
0.00011219
0.00013506
0.00016225
0.00019451
0.00023269
0.00027778
0.00033091
0.00039339
0.00046667
0.00055246
0.00065264
0.00076939
0.00090514
0.00106262
0.00124490
0.00145544
0.00169804
0.00197699
0.00229701
0.00266332
0.00308168
0.00355843
0.00410050
0.00471546
0.00541154
0.00619770
0.00708360
0.00807966
0.00919707
0.01044782
0.01184469
0.01340124
0.01513185
0.01705168
0.01917664
0.02152339
0.02410927
0.02695227
0.03007095
0.03348438
0.03721203
0.04127373
0.04568949
0.05047940
0.05566355
0.06126178
0.06729365
0.07377817
0.08073369
0.08817771
0.09612669
0.10459585
0.11359904
0.12314849
0.13325466
0.14392605
0.15516905
0.16698776
0.17938386
0.19235647
0.20590203
0.22001422
0.23468387
0.24989893
0.26564442
0.28190243
0.29865220
0.31587007
0.33352968
0.35160199
0.37005543
0.38885610
0.40796793
0.42735287
0.44697115
0.46678152
0.48674148
0.50680762
0.52693586
0.54708175
0.56720079
0.58724869
0.60718171
0.62695692
0.64653249
0.66586795
0.68492445
0.70366498
0.72205459
0.74006061
0.75765274
0.77480328
0.79148718
0.80768214
0.82336869
0.83853020
0.85315289
0.86722578
0.88074068
0.89369210
0.90607711
0.91789528
0.92914849
0.93984076
0.94997812
0.95956835
0.96862078
0.97714608
0.98515601
0.99266317
0.99968073
1.00622219
1.01230112
1.01793090
1.02312449
1.02789419
1.03225148
1.03620685
1.03976971
1.04294839
1.04575019
1.04818156
1.05024842
1.05195652
1.05331203
1.05432216
1.05499586
1.05534452
1.05538242
1.05512677
1.05459684
1.05381116
1.05278075
1.05149410
1.04988363
1.04776739
1.04476337
1.04041106
1.03528294
1.03122297
1.03021211
1.03325103
1.04038444
1.04956849
1.05777646
1.06326771
1.06495881
1.06220185
1.05569398
1.04759185
1.03956880
1.03198460
1.02440833
1.01614352
1.00611302
0.99147594
0.96142428
0.87892551
0.68894002
0.49222887
0.34022554
0.23269045
0.15878218
0.10844989
0.07424745
0.05099070
0.03514522
0.02431924
0.01689810
0.01179193
0.00826434
0.00581687
0.00411128
0.00291736
0.00207789
0.00148508
0.00106470
0.00076544
0.00055162
0.00039835
0.00028815
0.00020873
0.00015135
0.00010983
0.00007974
0.00005790
0.00004205
0.00003053
0.00002216
0.00001607
0.00001165
0.00000844
0.00000611
0.00000442
0.00000319
0.00000230
0.00000166
0.00000119
0.00000086
0.00000062
0.00000044
0.00000032
0.00000023
0.00000016
0.00000011
0.00000008
0.00000006
0.00000004
0.00000003
0.00000002
0.00000001
0.00000001
0.00000001
0.00000001
0.00000000
0.00000000
0.00000000
0.00000000
0.00000000
0.00000000
0.00000000
0.00000000
0.00000000
0.00000000
0.00000000
0.00000000
0.00000000
0.00000000
0.00000000
0.00000000
0.00000000
0.00000000
0.00000000
0.00000000
0.00000000
0.00000000
0.00000000
0.00000000
0.00000000
0.00000000
0.00000000
0.00000000
0.00000000
0.00000000
0.00000000
0.00000000
0.00000000
0.00000000
0.00000000
0.00000000
0.00000000
0.00000000
0.00000000
0.00000000
0.00000000
0.00000000
0.00000000
0.00000000
0.00000000
0.00000000
0.00000000
0.00000000
0.00000000
0.00000000
0.00000000
0.00000000
0.00000000
0.00000000
0.00000000
0.00000000
0.00000000
0.00000000
0.00000000
0.00000000
0.00000000
0.00000000
0.00000000
0.00000000
0.00000000
0.00000000
0.00000000
0.00000000
0.00000000
0.00000000
0.00000000
0.00000000
0.00000000
0.00000000
0.00000000
0.00000000
0.00000000
0.00000000
0.00000000
0.00000000
0.00000000
0.00000000
0.00000000
0.00000000
0.00000000
0.00000000
0.00000000
0.00000000
0.00000000
0.00000000
0.00000000
0.00000000
0.00000000
0.00000000
0.00000000
0.00000000
0.00000000
0.00000000
0.00000000
0.00000000
0.00000000
0.00000000
0.00000000
0.00000000
0.00000000
0.00000000
0.00000000
0.00000000
0.00000000
0.00000000
0.00000000
0.00000000
0.00000000
0.00000000
0.00000000
0.00000000
0.00000000
0.00000000
0.00000000
0.00000000
0.00000000
0.00000000
0.00000000
0.00000000
0.00000000
0.00000000
0.00000000
0.00000000
0.00000000
0.00000000
0.00000000
0.00000000
0.00000000
0.00000000
0.00000000
0.00000000
0.00000000
0.00000000
0.00000000
0.00000000
0.00000000
0.00000000
0.00000000
0.00000000
0.00000000
0.00000000
0.00000000
0.00000000
0.00000000
0.00000000
0.00000000
0.00000000
0.00000000
0.00000000
0.00000000
0.00000000
0.00000000
0.00000000
0.00000000
0.00000000
0.00000000
0.00000157
0.00000165
0.00000183
0.00000210
0.00000247
0.00000298
0.00000363
0.00000445
0.00000548
0.00000677
0.00000836
0.00001031
0.00001271
0.00001565
0.00001923
0.00002359
0.00002887
0.00003527
0.00004299
0.00005230
0.00006350
0.00007693
0.00009300
0.00011219
0.00013506
0.00016225
0.00019451
0.00023269
0.00027778
0.00033091
0.00039339
0.00046667
0.00055246
0.00065264
0.00076939
0.00090514
0.00106262
0.00124490
0.00145544
0.00169804
0.00197699
0.00229701
0.00266332
0.00308168
0.00355843
0.00410050
0.00471546
0.00541154
0.00619770
0.00708360
0.00807966
0.00919707
0.01044782
0.01184469
0.01340124
0.01513185
0.01705168
0.01917664
0.02152339
0.02410927
0.02695227
0.03007095
0.03348438
0.03721203
0.04127373
0.04568949
0.05047940
0.05566355
0.06126178
0.06729365
0.07377817
0.08073369
0.08817771
0.09612669
0.10459585
0.11359904
0.12314849
0.13325466
0.14392605
0.15516904
0.16698776
0.17938386
0.19235647
0.20590203
0.22001422
0.23468387
0.24989892
0.26564441
0.28190243
0.29865219
0.31587007
0.33352967
0.35160198
0.37005542
0.38885609
0.40796792
0.42735286
0.44697114
0.46678150
0.48674146
0.50680761
0.52693584
0.54708173
0.56720077
0.58724867
0.60718169
0.62695690
0.64653247
0.66586793
0.68492443
0.70366495
0.72205457
0.74006058
0.75765272
0.77480326
0.79148715
0.80768212
0.82336868
0.83853019
0.85315289
0.86722579
0.88074071
0.89369215
0.90607720
0.91789542
0.92914869
0.93984106
0.94997854
0.95956894
0.96862159
0.97714719
0.98515753
0.99266521
0.99968347
1.00622586
1.01230600
1.01793736
1.02313299
1.02790532
1.03226600
1.03622569
1.03979407
1.04297976
1.04579047
1.04823313
1.05031429
1.05204055
1.05341918
1.05445892
1.05517085
1.05556937
1.05567319
1.05550614
1.05509767
1.05448226
1.05369609
1.05276429
1.05166058
1.05018265
1.04757290
1.04233669
1.03510811
1.02900117
1.02735730
1.03196990
1.04377318
1.05964266
1.07331715
1.08319840
1.08792224
1.08543494
1.07594954
1.06420389
1.05385546
1.04512755
1.03674058
1.02696066
1.01323803
0.98973746
0.93834862
0.81202602
0.62229254
0.44803948
0.31422208
0.21795961
0.15051369
0.10380513
0.07162769
0.04950584
0.03429959
0.02383558
0.01662042
0.01163199
0.00817196
0.00576339
0.00408026
0.00289934
0.00206741
0.00147898
0.00106115
0.00076337
0.00055041
0.00039764
0.00028774
0.00020849
0.00015121
0.00010975
0.00007969
0.00005787
0.00004203
0.00003052
0.00002215
0.00001607
0.00001165
0.00000844
0.00000611
0.00000441
0.00000319
0.00000230
0.00000166
0.00000119
0.00000086
0.00000062
0.00000044
0.00000032
0.00000023
0.00000016
0.00000011
0.00000008
0.00000006
0.00000004
0.00000003
0.00000002
0.00000001
0.00000001
0.00000001
0.00000001
0.00000000
0.00000000
0.00000000
0.00000000
0.00000000
0.00000000
0.00000000
0.00000000
0.00000000
0.00000000
0.00000000
0.00000000
0.00000000
0.00000000
0.00000000
0.00000000
0.00000000
0.00000000
0.00000000
0.00000000
0.00000000
0.00000000
0.00000000
0.00000000
0.00000000
0.00000000
0.00000000
0.00000000
0.00000000
0.00000000
0.00000000
0.00000000
0.00000000
0.00000000
0.00000000
0.00000000
0.00000000
0.00000000
0.00000000
0.00000000
0.00000000
0.00000000
0.00000000
0.00000000
0.00000000
0.00000000
0.00000000
0.00000000
0.00000000
0.00000000
0.00000000
0.00000000
0.00000000
0.00000000
0.00000000
0.00000000
0.00000000
0.00000000
0.00000000
0.00000000
0.00000000
0.00000000
0.00000000
0.00000000
0.00000000
0.00000000
0.00000000
0.00000000
0.00000000
0.00000000
0.00000000
0.00000000
0.00000000
0.00000000
0.00000000
0.00000000
0.00000000
0.00000000
0.00000000
0.00000000
0.00000000
0.00000000
0.00000000
0.00000000
0.00000000
0.00000000
0.00000000
0.00000000
0.00000000
0.00000000
0.00000000
0.00000000
0.00000000
0.00000000
0.00000000
0.00000000
0.00000000
0.00000000
0.00000000
0.00000000
0.00000000
0.00000000
0.00000000
0.00000000
0.00000000
0.00000000
0.00000000
0.00000000
0.00000000
0.00000000
0.00000000
0.00000000
0.00000000
0.00000000
0.00000000
0.00000000
0.00000000
0.00000000
0.00000000
0.00000000
0.00000000
0.00000000
0.00000000
0.00000000
0.00000000
0.00000000
0.00000000
0.00000000
0.00000000
0.00000000
0.00000000
0.00000000
0.00000000
0.00000000
0.00000000
0.00000000
0.00000000
0.00000000
0.00000000
0.00000000
0.00000000
0.00000000
0.00000000
0.00000000
0.00000000
0.00000000
0.00000000
0.00000000
0.00000000
0.00000000
0.00000000
0.00000000
0.00000000
0.00000000
0.00000000
0.00000000
0.00000000
0.00000000
0.00000000
0.00000000
0.00000000
0.00000157
0.00000165
0.00000183
0.00000210
0.00000247
0.00000298
0.00000363
0.00000445
0.00000548
0.00000677
0.00000836
0.00001031
0.00001271
0.00001565
0.00001923
0.00002359
0.00002887
0.00003527
0.00004299
0.00005230
0.00006350
0.00007693
0.00009300
0.00011219
0.00013506
0.00016225
0.00019451
0.00023269
0.00027778
0.00033091
0.00039339
0.00046667
0.00055246
0.00065264
0.00076939
0.00090514
0.00106262
0.00124490
0.00145544
0.00169804
0.00197699
0.00229701
0.00266332
0.00308168
0.00355843
0.00410050
0.00471546
0.00541154
0.00619770
0.00708360
0.00807966
0.00919707
0.01044783
0.01184469
0.01340124
0.01513185
0.01705168
0.01917664
0.02152339
0.02410928
0.02695227
0.03007095
0.03348438
0.03721204
0.04127373
0.04568949
0.05047940
0.05566355
0.06126178
0.06729365
0.07377817
0.08073369
0.08817771
0.09612669
0.10459585
0.11359904
0.12314849
0.13325465
0.14392604
0.15516904
0.16698775
0.17938386
0.19235647
0.20590203
0.22001421
0.23468386
0.24989892
0.26564440
0.28190242
0.29865218
0.31587006
0.33352966
0.35160197
0.37005541
0.38885608
0.40796791
0.42735284
0.44697112
0.46678148
0.48674145
0.50680758
0.52693582
0.54708171
0.56720074
0.58724864
0.60718166
0.62695687
0.64653244
0.66586790
0.68492440
0.70366492
0.72205454
0.74006055
0.75765269
0.77480323
0.79148712
0.80768209
0.82336865
0.83853017
0.85315287
0.86722578
0.88074072
0.89369218
0.90607726
0.91789552
0.92914885
0.93984130
0.94997890
0.95956945
0.96862233
0.97714823
0.98515896
0.99266719
0.99968617
1.00622950
1.01231090
1.01794391
1.02314169
1.02791681
1.03228108
1.03624539
1.03981965
1.04301282
1.04583298
1.04828754
1.05038363
1.05212857
1.05353060
1.05459964
1.05534842
1.05579365
1.05595743
1.05586888
1.05556630
1.05510004
1.05453655
1.05395959
1.05345292
1.05296097
1.05161127
1.04584603
1.03729307
1.03067802
1.02837557
1.03271352
1.04776321
1.07145993
1.09072252
1.10584575
1.11578668
1.11521830
1.10102988
1.08316662
1.06927137
1.05912344
1.04965703
1.03703898
1.01599404
0.97442049
0.88858155
0.73741434
0.56335840
0.41081423
0.29239622
0.20544224
0.14336427
0.09971331
0.06927690
0.04815014
0.03351518
0.02338052
0.01635587
0.01147795
0.00808216
0.00571100
0.00404967
0.00288147
0.00205697
0.00147288
0.00105759
0.00076129
0.00054920
0.00039694
0.00028733
0.00020825
0.00015107
0.00010967
0.00007964
0.00005785
0.00004201
0.00003051
0.00002214
0.00001606
0.00001165
0.00000844
0.00000611
0.00000441
0.00000319
0.00000230
0.00000166
0.00000119
0.00000086
0.00000062
0.00000044
0.00000032
0.00000023
0.00000016
0.00000011
0.00000008
0.00000006
0.00000004
0.00000003
0.00000002
0.00000001
0.00000001
0.00000001
0.00000001
0.00000000
0.00000000
0.00000000
0.00000000
0.00000000
0.00000000
0.00000000
0.00000000
0.00000000
0.00000000
0.00000000
0.00000000
0.00000000
0.00000000
0.00000000
0.00000000
0.00000000
0.00000000
0.00000000
0.00000000
0.00000000
0.00000000
0.00000000
0.00000000
0.00000000
0.00000000
0.00000000
0.00000000
0.00000000
0.00000000
0.00000000
0.00000000
0.00000000
0.00000000
0.00000000
0.00000000
0.00000000
0.00000000
0.00000000
0.00000000
0.00000000
0.00000000
0.00000000
0.00000000
0.00000000
0.00000000
0.00000000
0.00000000
0.00000000
0.00000000
0.00000000
0.00000000
0.00000000
0.00000000
0.00000000
0.00000000
0.00000000
0.00000000
0.00000000
0.00000000
0.00000000
0.00000000
0.00000000
0.00000000
0.00000000
0.00000000
0.00000000
0.00000000
0.00000000
0.00000000
0.00000000
0.00000000
0.00000000
0.00000000
0.00000000
0.00000000
0.00000000
0.00000000
0.00000000
0.00000000
0.00000000
0.00000000
0.00000000
0.00000000