# vtk DataFile Version 3.0
Concentration output
ASCII
DATASET STRUCTURED_POINTS
DIMENSIONS 398 98 1
ORIGIN 0 0 0
SPACING 0.03 0.03 1.0
POINT_DATA 39004
SCALARS Variable float 1
LOOKUP_TABLE default
0.00000130
0.00000137
0.00000151
0.00000173
0.00000204
0.00000246
0.00000299
0.00000367
0.00000453
0.00000559
0.00000690
0.00000852
0.00001050
0.00001292
0.00001588
0.00001948
0.00002385
0.00002913
0.00003552
0.00004321
0.00005247
0.00006357
0.00007685
0.00009273
0.00011164
0.00013413
0.00016081
0.00019239
0.00022970
0.00027366
0.00032536
0.00038602
0.00045702
0.00053996
0.00063663
0.00074903
0.00087945
0.00103044
0.00120484
0.00140584
0.00163699
0.00190220
0.00220582
0.00255264
0.00294792
0.00339743
0.00390746
0.00448486
0.00513709
0.00587218
0.00669882
0.00762633
0.00866468
0.00982454
0.01111723
0.01255472
0.01414966
0.01591535
0.01786570
0.02001518
0.02237884
0.02497220
0.02781121
0.03091219
0.03429173
0.03796661
0.04195368
0.04626981
0.05093167
0.05595569
0.06135788
0.06715372
0.07335795
0.07998449
0.08704625
0.09455495
0.10252102
0.11095339
0.11985939
0.12924457
0.13911258
0.14946504
0.16030143
0.17161901
0.18341271
0.19567506
0.20839620
0.22156378
0.23516300
0.24917664
0.26358506
0.27836629
0.29349614
0.30894824
0.32469426
0.34070399
0.35694555
0.37338557
0.38998940
0.40672132
0.42354479
0.44042268
0.45731750
0.47419169
0.49100783
0.50772892
0.52431861
0.54074144
0.55696308
0.57295052
0.58867229
0.60409864
0.61920170
0.63395563
0.64833674
0.66232360
0.67589711
0.68904055
0.70173965
0.71398254
0.72575980
0.73706441
0.74789167
0.75823917
0.76810668
0.77749606
0.78641115
0.79485762
0.80284286
0.81037585
0.81746694
0.82412780
0.83037119
0.83621084
0.84166128
0.84673773
0.85145589
0.85583186
0.85988201
0.86362279
0.86707071
0.87024215
0.87315331
0.87582013
0.87825817
0.88048258
0.88250803
0.88434867
0.88601807
0.88752921
0.88889446
0.89012554
0.89123354
0.89222888
0.89312137
0.89392017
0.89463383
0.89527028
0.89583687
0.89634041
0.89678715
0.89718284
0.89753273
0.89784164
0.89811395
0.89835362
0.89856426
0.89874914
0.89891118
0.89905303
0.89917706
0.89928539
0.89937992
0.89946233
0.89953412
0.89959663
0.89965103
0.89969837
0.89973956
0.89977540
0.89980661
0.89983381
0.89985754
0.89987828
0.89989646
0.89991243
0.89992653
0.89993902
0.89995015
0.89996014
0.89996915
0.89997732
0.89998476
0.89999154
0.89999764
0.90000282
0.90000706
0.90001276
0.90002671
0.90004436
0.89998024
0.89957149
0.89841183
0.89487599
0.87061219
0.71035445
0.48978546
0.31831291
0.20297641
0.12862766
0.08134219
0.05140309
0.03247550
0.02051564
0.01295985
0.00818670
0.00517147
0.00326676
0.00206356
0.00130351
0.00082340
0.00052012
0.00032854
0.00020753
0.00013109
0.00008280
0.00005230
0.00003304
0.00002087
0.00001318
0.00000832
0.00000526
0.00000332
0.00000210
0.00000132
0.00000084
0.00000053
0.00000033
0.00000021
0.00000013
0.00000008
0.00000005
0.00000003
0.00000002
0.00000001
0.00000001
0.00000001
0.00000000
0.00000000
0.00000000
0.00000000
0.00000000
0.00000000
0.00000000
0.00000000
0.00000000
0.00000000
0.00000000
0.00000000
0.00000000
0.00000000
0.00000000
0.00000000
0.00000000
0.00000000
0.00000000
0.00000000
0.00000000
0.00000000
0.00000000
0.00000000
0.00000000
0.00000000
0.00000000
0.00000000
0.00000000
0.00000000
0.00000000
0.00000000
0.00000000
0.00000000
0.00000000
0.00000000
0.00000000
0.00000000
0.00000000
0.00000000
0.00000000
0.00000000
0.00000000
0.00000000
0.00000000
0.00000000
0.00000000
0.00000000
0.00000000
0.00000000
0.00000000
0.00000000
0.00000000
0.00000000
0.00000000
0.00000000
0.00000000
0.00000000
0.00000000
0.00000000
0.00000000
0.00000000
0.00000000
0.00000000
0.00000000
0.00000000
0.00000000
0.00000000
0.00000000
0.00000000
0.00000000
0.00000000
0.00000000
0.00000000
0.00000000
0.00000000
0.00000000
0.00000000
0.00000000
0.00000000
0.00000000
0.00000000
0.00000000
0.00000000
0.00000000
0.00000000
0.00000000
0.00000000
0.00000000
0.00000000
0.00000000
0.00000000
0.00000000
0.00000000
0.00000000
0.00000000
0.00000000
0.00000000
0.00000000
0.00000000
0.00000000
0.00000000
0.00000000
0.00000000
0.00000000
0.00000000
0.00000000
0.00000000
0.00000000
0.00000000
0.00000000
0.00000000
0.00000000
0.00000000
0.00000000
0.00000000
0.00000000
0.00000000
0.00000000
0.00000000
0.00000000
0.00000000
0.00000000
0.00000000
0.00000000
0.00000000
0.00000000
0.00000000
0.00000000
0.00000000
0.00000000
0.00000000
0.00000000
0.00000000
0.00000000
0.00000000
0.00000000
0.00000000
0.00000000
0.00000000
0.00000000
0.00000000
0.00000000
0.00000000
0.00000000
0.00000000
0.00000000
0.00000000
0.00000000
0.00000000
0.00000000
0.00000130
0.00000137
0.00000151
0.00000173
0.00000204
0.00000246
0.00000299
0.00000367
0.00000453
0.00000559
0.00000690
0.00000852
0.00001050
0.00001292
0.00001588
0.00001948
0.00002385
0.00002913
0.00003552
0.00004321
0.00005247
0.00006357
0.00007685
0.00009273
0.00011164
0.00013413
0.00016081
0.00019239
0.00022970
0.00027366
0.00032536
0.00038602
0.00045702
0.00053996
0.00063663
0.00074903
0.00087945
0.00103044
0.00120484
0.00140584
0.00163699
0.00190220
0.00220582
0.00255264
0.00294792
0.00339743
0.00390746
0.00448486
0.00513709
0.00587218
0.00669882
0.00762633
0.00866468
0.00982454
0.01111723
0.01255472
0.01414966
0.01591535
0.01786570
0.02001518
0.02237884
0.02497220
0.02781121
0.03091219
0.03429173
0.03796661
0.04195369
0.04626981
0.05093167
0.05595569
0.06135788
0.06715372
0.07335795
0.07998449
0.08704625
0.09455495
0.10252102
0.11095339
0.11985939
0.12924457
0.13911258
0.14946504
0.16030143
0.17161901
0.18341271
0.19567506
0.20839620
0.22156378
0.23516300
0.24917664
0.26358505
0.27836629
0.29349614
0.30894824
0.32469426
0.34070399
0.35694554
0.37338556
0.38998939
0.40672132
0.42354479
0.44042268
0.45731750
0.47419169
0.49100783
0.50772892
0.52431860
0.54074144
0.55696307
0.57295051
0.58867228
0.60409863
0.61920170
0.63395563
0.64833674
0.66232360
0.67589711
0.68904055
0.70173964
0.71398253
0.72575980
0.73706440
0.74789166
0.75823916
0.76810667
0.77749605
0.78641114
0.79485761
0.80284286
0.81037584
0.81746693
0.82412779
0.83037118
0.83621083
0.84166128
0.84673772
0.85145588
0.85583186
0.85988200
0.86362279
0.86707070
0.87024214
0.87315331
0.87582013
0.87825816
0.88048257
0.88250803
0.88434866
0.88601807
0.88752921
0.88889446
0.89012554
0.89123353
0.89222888
0.89312137
0.89392017
0.89463382
0.89527027
0.89583687
0.89634041
0.89678715
0.89718283
0.89753273
0.89784164
0.89811394
0.89835361
0.89856425
0.89874913
0.89891117
0.89905301
0.89917704
0.89928537
0.89937989
0.89946229
0.89953408
0.89959658
0.89965097
0.89969829
0.89973946
0.89977529
0.89980648
0.89983366
0.89985737
0.89987809
0.89989625
0.89991219
0.89992625
0.89993870
0.89994979
0.89995972
0.89996867
0.89997676
0.89998411
0.89999080
0.89999681
0.90000194
0.90000618
0.90001196
0.90002614
0.90004426
0.89998097
0.89957293
0.89841451
0.89488982
0.87071926
0.71039732
0.48978721
0.31832012
0.20298124
0.12862969
0.08134332
0.05140372
0.03247589
0.02051587
0.01295999
0.00818679
0.00517152
0.00326679
0.00206358
0.00130352
0.00082340
0.00052012
0.00032854
0.00020753
0.00013109
0.00008280
0.00005230
0.00003304
0.00002087
0.00001318
0.00000832
0.00000526
0.00000332
0.00000210
0.00000132
0.00000084
0.00000053
0.00000033
0.00000021
0.00000013
0.00000008
0.00000005
0.00000003
0.00000002
0.00000001
0.00000001
0.00000001
0.00000000
0.00000000
0.00000000
0.00000000
0.00000000
0.00000000
0.00000000
0.00000000
0.00000000
0.00000000
0.00000000
0.00000000
0.00000000
0.00000000
0.00000000
0.00000000
0.00000000
0.00000000
0.00000000
0.00000000
0.00000000
0.00000000
0.00000000
0.00000000
0.00000000
0.00000000
0.00000000
0.00000000
0.00000000
0.00000000
0.00000000
0.00000000
0.00000000
0.00000000
0.00000000
0.00000000
0.00000000
0.00000000
0.00000000
0.00000000
0.00000000
0.00000000
0.00000000
0.00000000
0.00000000
0.00000000
0.00000000
0.00000000
0.00000000
0.00000000
0.00000000
0.00000000
0.00000000
0.00000000
0.00000000
0.00000000
0.00000000
0.00000000
0.00000000
0.00000000
0.00000000
0.00000000
0.00000000
0.00000000
0.00000000
0.00000000
0.00000000
0.00000000
0.00000000
0.00000000
0.00000000
0.00000000
0.00000000
0.00000000
0.00000000
0.00000000
0.00000000
0.00000000
0.00000000
0.00000000
0.00000000
0.00000000
0.00000000
0.00000000
0.00000000
0.00000000
0.00000000
0.00000000
0.00000000
0.00000000
0.00000000
0.00000000
0.00000000
0.00000000
0.00000000
0.00000000
0.00000000
0.00000000
0.00000000
0.00000000
0.00000000
0.00000000
0.00000000
0.00000000
0.00000000
0.00000000
0.00000000
0.00000000
0.00000000
0.00000000
0.00000000
0.00000000
0.00000000
0.00000000
0.00000000
0.00000000
0.00000000
0.00000000
0.00000000
0.00000000
0.00000000
0.00000000
0.00000000
0.00000000
0.00000000
0.00000000
0.00000000
0.00000000
0.00000000
0.00000000
0.00000000
0.00000000
0.00000000
0.00000000
0.00000000
0.00000000
0.00000000
0.00000000
0.00000000
0.00000000
0.00000000
0.00000000
0.00000000
0.00000000
0.00000000
0.00000000
0.00000000
0.00000000
0.00000000
0.00000000
0.00000000
0.00000130
0.00000137
0.00000151
0.00000173
0.00000204
0.00000246
0.00000299
0.00000367
0.00000453
0.00000559
0.00000690
0.00000852
0.00001050
0.00001292
0.00001588
0.00001948
0.00002385
0.00002913
0.00003552
0.00004321
0.00005247
0.00006357
0.00007685
0.00009273
0.00011164
0.00013413
0.00016081
0.00019239
0.00022970
0.00027366
0.00032536
0.00038602
0.00045702
0.00053996
0.00063663
0.00074903
0.00087945
0.00103044
0.00120484
0.00140584
0.00163699
0.00190220
0.00220582
0.00255264
0.00294792
0.00339743
0.00390746
0.00448486
0.00513709
0.00587218
0.00669882
0.00762633
0.00866468
0.00982454
0.01111723
0.01255472
0.01414966
0.01591535
0.01786570
0.02001518
0.02237884
0.02497220
0.02781121
0.03091219
0.03429173
0.03796661
0.04195369
0.04626981
0.05093167
0.05595569
0.06135788
0.06715372
0.07335795
0.07998449
0.08704625
0.09455495
0.10252102
0.11095339
0.11985939
0.12924457
0.13911258
0.14946504
0.16030143
0.17161901
0.18341271
0.19567506
0.20839620
0.22156377
0.23516300
0.24917664
0.26358505
0.27836629
0.29349613
0.30894824
0.32469426
0.34070398
0.35694554
0.37338556
0.38998939
0.40672131
0.42354479
0.44042267
0.45731750
0.47419168
0.49100782
0.50772891
0.52431860
0.54074143
0.55696307
0.57295051
0.58867228
0.60409863
0.61920169
0.63395562
0.64833673
0.66232359
0.67589710
0.68904054
0.70173963
0.71398252
0.72575979
0.73706439
0.74789165
0.75823915
0.76810666
0.77749604
0.78641113
0.79485760
0.80284284
0.81037582
0.81746692
0.82412778
0.83037117
0.83621082
0.84166127
0.84673771
0.85145587
0.85583184
0.85988199
0.86362277
0.86707069
0.87024213
0.87315330
0.87582012
0.87825816
0.88048257
0.88250802
0.88434866
0.88601806
0.88752920
0.88889445
0.89012553
0.89123352
0.89222887
0.89312136
0.89392016
0.89463381
0.89527026
0.89583686
0.89634040
0.89678713
0.89718282
0.89753271
0.89784162
0.89811392
0.89835359
0.89856424
0.89874911
0.89891114
0.89905298
0.89917700
0.89928532
0.89937983
0.89946222
0.89953399
0.89959647
0.89965084
0.89969814
0.89973928
0.89977508
0.89980624
0.89983338
0.89985704
0.89987772
0.89989582
0.89991170
0.89992570
0.89993807
0.89994907
0.89995889
0.89996771
0.89997565
0.89998283
0.89998933
0.89999516
0.90000015
0.90000435
0.90001027
0.90002492
0.90004409
0.89998268
0.89957688
0.89842198
0.89489952
0.87066379
0.71037003
0.48983694
0.31834120
0.20299235
0.12863413
0.08134575
0.05140507
0.03247666
0.02051633
0.01296027
0.00818695
0.00517162
0.00326684
0.00206361
0.00130354
0.00082342
0.00052013
0.00032855
0.00020753
0.00013109
0.00008280
0.00005230
0.00003304
0.00002087
0.00001318
0.00000832
0.00000526
0.00000332
0.00000210
0.00000132
0.00000084
0.00000053
0.00000033
0.00000021
0.00000013
0.00000008
0.00000005
0.00000003
0.00000002
0.00000001
0.00000001
0.00000001
0.00000000
0.00000000
0.00000000
0.00000000
0.00000000
0.00000000
0.00000000
0.00000000
0.00000000
0.00000000
0.00000000
0.00000000
0.00000000
0.00000000
0.00000000
0.00000000
0.00000000
0.00000000
0.00000000
0.00000000
0.00000000
0.00000000
0.00000000
0.00000000
0.00000000
0.00000000
0.00000000
0.00000000
0.00000000
0.00000000
0.00000000
0.00000000
0.00000000
0.00000000
0.00000000
0.00000000
0.00000000
0.00000000
0.00000000
0.00000000
0.00000000
0.00000000
0.00000000
0.00000000
0.00000000
0.00000000
0.00000000
0.00000000
0.00000000
0.00000000
0.00000000
0.00000000
0.00000000
0.00000000
0.00000000
0.00000000
0.00000000
0.00000000
0.00000000
0.00000000
0.00000000
0.00000000
0.00000000
0.00000000
0.00000000
0.00000000
0.00000000
0.00000000
0.00000000
0.00000000
0.00000000
0.00000000
0.00000000
0.00000000
0.00000000
0.00000000
0.00000000
0.00000000
0.00000000
0.00000000
0.00000000
0.00000000
0.00000000
0.00000000
0.00000000
0.00000000
0.00000000
0.00000000
0.00000000
0.00000000
0.00000000
0.00000000
0.00000000
0.00000000
0.00000000
0.00000000
0.00000000
0.00000000
0.00000000
0.00000000
0.00000000
0.00000000
0.00000000
0.00000000
0.00000000
0.00000000
0.00000000
0.00000000
0.00000000
0.00000000
0.00000000
0.00000000
0.00000000
0.00000000
0.00000000
0.00000000
0.00000000
0.00000000
0.00000000
0.00000000
0.00000000
0.00000000
0.00000000
0.00000000
0.00000000
0.00000000
0.00000000
0.00000000
0.00000000
0.00000000
0.00000000
0.00000000
0.00000000
0.00000000
0.00000000
0.00000000
0.00000000
0.00000000
0.00000000
0.00000000
0.00000000
0.00000000
0.00000000
0.00000000
0.00000000
0.00000000
0.00000000
0.00000000
0.00000000
0.00000000
0.00000000
0.00000130
0.00000137
0.00000151
0.00000173
0.00000204
0.00000246
0.00000299
0.00000367
0.00000453
0.00000559
0.00000690
0.00000852
0.00001050
0.00001292
0.00001588
0.00001948
0.00002385
0.00002913
0.00003552
0.00004321
0.00005247
0.00006357
0.00007685
0.00009273
0.00011164
0.00013413
0.00016081
0.00019239
0.00022970
0.00027366
0.00032536
0.00038602
0.00045702
0.00053996
0.00063663
0.00074903
0.00087945
0.00103044
0.00120484
0.00140584
0.00163699
0.00190220
0.00220582
0.00255264
0.00294792
0.00339743
0.00390746
0.00448486
0.00513709
0.00587218
0.00669882
0.00762633
0.00866469
0.00982455
0.01111723
0.01255472
0.01414966
0.01591535
0.01786570
0.02001518
0.02237884
0.02497220
0.02781121
0.03091219
0.03429173
0.03796661
0.04195369
0.04626981
0.05093167
0.05595569
0.06135789
0.06715372
0.07335795
0.07998449
0.08704625
0.09455495
0.10252102
0.11095339
0.11985939
0.12924457
0.13911258
0.14946504
0.16030143
0.17161901
0.18341271
0.19567506
0.20839620
0.22156377
0.23516300
0.24917663
0.26358505
0.27836629
0.29349613
0.30894824
0.32469425
0.34070398
0.35694554
0.37338556
0.38998939
0.40672131
0.42354478
0.44042267
0.45731749
0.47419168
0.49100781
0.50772890
0.52431859
0.54074142
0.55696306
0.57295049
0.58867226
0.60409861
0.61920167
0.63395560
0.64833671
0.66232357
0.67589708
0.68904052
0.70173961
0.71398250
0.72575977
0.73706437
0.74789163
0.75823913
0.76810664
0.77749602
0.78641111
0.79485758
0.80284282
0.81037580
0.81746690
0.82412776
0.83037115
0.83621080
0.84166125
0.84673769
0.85145585
0.85583183
0.85988197
0.86362276
0.86707068
0.87024212
0.87315328
0.87582010
0.87825814
0.88048255
0.88250800
0.88434864
0.88601804
0.88752919
0.88889444
0.89012552
0.89123351
0.89222885
0.89312134
0.89392014
0.89463380
0.89527025
0.89583684
0.89634038
0.89678712
0.89718280
0.89753270
0.89784160
0.89811390
0.89835357
0.89856421
0.89874907
0.89891110
0.89905294
0.89917694
0.89928525
0.89937974
0.89946211
0.89953386
0.89959631
0.89965065
0.89969791
0.89973902
0.89977476
0.89980587
0.89983295
0.89985655
0.89987716
0.89989518
0.89991098
0.89992487
0.89993713
0.89994800
0.89995766
0.89996628
0.89997400
0.89998092
0.89998714
0.89999268
0.89999741
0.90000145
0.90000743
0.90002258
0.90004306
0.89998418
0.89958178
0.89842764
0.89492030
0.87064929
0.71040005
0.48986451
0.31836685
0.20300424
0.12864155
0.08134946
0.05140712
0.03247784
0.02051702
0.01296068
0.00818719
0.00517176
0.00326693
0.00206366
0.00130357
0.00082343
0.00052014
0.00032855
0.00020754
0.00013109
0.00008280
0.00005230
0.00003304
0.00002087
0.00001318
0.00000832
0.00000526
0.00000332
0.00000210
0.00000132
0.00000084
0.00000053
0.00000033
0.00000021
0.00000013
0.00000008
0.00000005
0.00000003
0.00000002
0.00000001
0.00000001
0.00000001
0.00000000
0.00000000
0.00000000
0.00000000
0.00000000
0.00000000
0.00000000
0.00000000
0.00000000
0.00000000
0.00000000
0.00000000
0.00000000
0.00000000
0.00000000
0.00000000
0.00000000
0.00000000
0.00000000
0.00000000
0.00000000
0.00000000
0.00000000
0.00000000
0.00000000
0.00000000
0.00000000
0.00000000
0.00000000
0.00000000
0.00000000
0.00000000
0.00000000
0.00000000
0.00000000
0.00000000
0.00000000
0.00000000
0.00000000
0.00000000
0.00000000
0.00000000
0.00000000
0.00000000
0.00000000
0.00000000
0.00000000
0.00000000
0.00000000
0.00000000
0.00000000
0.00000000
0.00000000
0.00000000
0.00000000
0.00000000
0.00000000
0.00000000
0.00000000
0.00000000
0.00000000
0.00000000
0.00000000
0.00000000
0.00000000
0.00000000
0.00000000
0.00000000
0.00000000
0.00000000
0.00000000
0.00000000
0.00000000
0.00000000
0.00000000
0.00000000
0.00000000
0.00000000
0.00000000
0.00000000
0.00000000
0.00000000
0.00000000
0.00000000
0.00000000
0.00000000
0.00000000
0.00000000
0.00000000
0.00000000
0.00000000
0.00000000
0.00000000
0.00000000
0.00000000
0.00000000
0.00000000
0.00000000
0.00000000
0.00000000
0.00000000
0.00000000
0.00000000
0.00000000
0.00000000
0.00000000
0.00000000
0.00000000
0.00000000
0.00000000
0.00000000
0.00000000
0.00000000
0.00000000
0.00000000
0.00000000
0.00000000
0.00000000
0.00000000
0.00000000
0.00000000
0.00000000
0.00000000
0.00000000
0.00000000
0.00000000
0.00000000
0.00000000
0.00000000
0.00000000
0.00000000
0.00000000
0.00000000
0.00000000
0.00000000
0.00000000
0.00000000
0.00000000
0.00000000
0.00000000
0.00000000
0.00000000
0.00000000
0.00000000
0.00000000
0.00000000
0.00000000
0.00000000
0.00000000
0.00000000
0.00000000
0.00000130
0.00000137
0.00000151
0.00000173
0.00000204
0.00000246
0.00000299
0.00000367
0.00000453
0.00000559
0.00000690
0.00000852
0.00001050
0.00001292
0.00001588
0.00001948
0.00002385
0.00002913
0.00003552
0.00004321
0.00005247
0.00006357
0.00007685
0.00009273
0.00011164
0.00013413
0.00016081
0.00019239
0.00022970
0.00027366
0.00032536
0.00038602
0.00045702
0.00053996
0.00063663
0.00074903
0.00087945
0.00103044
0.00120484
0.00140584
0.00163699
0.00190220
0.00220582
0.00255264
0.00294792
0.00339743
0.00390746
0.00448486
0.00513709
0.00587218
0.00669882
0.00762633
0.00866469
0.00982455
0.01111723
0.01255472
0.01414966
0.01591536
0.01786570
0.02001518
0.02237884
0.02497220
0.02781121
0.03091219
0.03429173
0.03796661
0.04195369
0.04626981
0.05093167
0.05595569
0.06135789
0.06715372
0.07335795
0.07998449
0.08704625
0.09455495
0.10252102
0.11095339
0.11985939
0.12924457
0.13911258
0.14946504
0.16030143
0.17161901
0.18341271
0.19567506
0.20839620
0.22156377
0.23516300
0.24917663
0.26358505
0.27836629
0.29349613
0.30894823
0.32469425
0.34070398
0.35694553
0.37338555
0.38998938
0.40672130
0.42354477
0.44042266
0.45731748
0.47419167
0.49100780
0.50772889
0.52431858
0.54074141
0.55696304
0.57295048
0.58867225
0.60409860
0.61920165
0.63395558
0.64833669
0.66232355
0.67589706
0.68904050
0.70173959
0.71398248
0.72575974
0.73706435
0.74789161
0.75823910
0.76810661
0.77749599
0.78641108
0.79485755
0.80284280
0.81037578
0.81746687
0.82412773
0.83037113
0.83621077
0.84166122
0.84673766
0.85145582
0.85583180
0.85988195
0.86362274
0.86707065
0.87024210
0.87315326
0.87582008
0.87825812
0.88048253
0.88250799
0.88434862
0.88601803
0.88752917
0.88889442
0.89012550
0.89123349
0.89222883
0.89312133
0.89392013
0.89463378
0.89527023
0.89583682
0.89634036
0.89678710
0.89718278
0.89753267
0.89784158
0.89811388
0.89835354
0.89856417
0.89874903
0.89891105
0.89905288
0.89917687
0.89928516
0.89937963
0.89946198
0.89953369
0.89959611
0.89965041
0.89969762
0.89973867
0.89977435
0.89980539
0.89983239
0.89985591
0.89987642
0.89989434
0.89991002
0.89992378
0.89993589
0.89994658
0.89995603
0.89996441
0.89997184
0.89997843
0.89998427
0.89998939
0.89999370
0.89999736
0.90000310
0.90001831
0.90003945
0.89998231
0.89958287
0.89843373
0.89491622
0.87068057
0.71046597
0.48987351
0.31837670
0.20301561
0.12864942
0.08135413
0.05140976
0.03247936
0.02051791
0.01296120
0.00818751
0.00517195
0.00326704
0.00206372
0.00130361
0.00082345
0.00052015
0.00032856
0.00020754
0.00013109
0.00008281
0.00005230
0.00003304
0.00002087
0.00001318
0.00000832
0.00000526
0.00000332
0.00000210
0.00000132
0.00000084
0.00000053
0.00000033
0.00000021
0.00000013
0.00000008
0.00000005
0.00000003
0.00000002
0.00000001
0.00000001
0.00000001
0.00000000
0.00000000
0.00000000
0.00000000
0.00000000
0.00000000
0.00000000
0.00000000
0.00000000
0.00000000
0.00000000
0.00000000
0.00000000
0.00000000
0.00000000
0.00000000
0.00000000
0.00000000
0.00000000
0.00000000
0.00000000
0.00000000
0.00000000
0.00000000
0.00000000
0.00000000
0.00000000
0.00000000
0.00000000
0.00000000
0.00000000
0.00000000
0.00000000
0.00000000
0.00000000
0.00000000
0.00000000
0.00000000
0.00000000
0.00000000
0.00000000
0.00000000
0.00000000
0.00000000
0.00000000
0.00000000
0.00000000
0.00000000
0.00000000
0.00000000
0.00000000
0.00000000
0.00000000
0.00000000
0.00000000
0.00000000
0.00000000
0.00000000
0.00000000
0.00000000
0.00000000
0.00000000
0.00000000
0.00000000
0.00000000
0.00000000
0.00000000
0.00000000
0.00000000
0.00000000
0.00000000
0.00000000
0.00000000
0.00000000
0.00000000
0.00000000
0.00000000
0.00000000
0.00000000
0.00000000
0.00000000
0.00000000
0.00000000
0.00000000
0.00000000
0.00000000
0.00000000
0.00000000
0.00000000
0.00000000
0.00000000
0.00000000
0.00000000
0.00000000
0.00000000
0.00000000
0.00000000
0.00000000
0.00000000
0.00000000
0.00000000
0.00000000
0.00000000
0.00000000
0.00000000
0.00000000
0.00000000
0.00000000
0.00000000
0.00000000
0.00000000
0.00000000
0.00000000
0.00000000
0.00000000
0.00000000
0.00000000
0.00000000
0.00000000
0.00000000
0.00000000
0.00000000
0.00000000
0.00000000
0.00000000
0.00000000
0.00000000
0.00000000
0.00000000
0.00000000
0.00000000
0.00000000
0.00000000
0.00000000
0.00000000
0.00000000
0.00000000
0.00000000
0.00000000
0.00000000
0.00000000
0.00000000
0.00000000
0.00000000
0.00000000
0.00000000
0.00000000
0.00000000
0.00000000
0.00000000
0.00000000
0.00000130
0.00000137
0.00000151
0.00000173
0.00000204
0.00000246
0.00000299
0.00000367
0.00000453
0.00000559
0.00000690
0.00000852
0.00001050
0.00001292
0.00001588
0.00001948
0.00002385
0.00002913
0.00003552
0.00004321
0.00005247
0.00006357
0.00007685
0.00009273
0.00011164
0.00013413
0.00016081
0.00019239
0.00022970
0.00027366
0.00032536
0.00038602
0.00045702
0.00053996
0.00063663
0.00074903
0.00087945
0.00103044
0.00120484
0.00140584
0.00163699
0.00190220
0.00220582
0.00255264
0.00294792
0.00339743
0.00390746
0.00448486
0.00513709
0.00587218
0.00669882
0.00762633
0.00866469
0.00982455
0.01111723
0.01255472
0.01414966
0.01591536
0.01786570
0.02001518
0.02237884
0.02497220
0.02781121
0.03091219
0.03429173
0.03796661
0.04195369
0.04626981
0.05093167
0.05595569
0.06135789
0.06715372
0.07335795
0.07998450
0.08704625
0.09455495
0.10252102
0.11095339
0.11985939
0.12924457
0.13911258
0.14946504
0.16030143
0.17161901
0.18341271
0.19567506
0.20839620
0.22156377
0.23516300
0.24917663
0.26358505
0.27836628
0.29349613
0.30894823
0.32469425
0.34070397
0.35694553
0.37338555
0.38998937
0.40672129
0.42354477
0.44042265
0.45731747
0.47419165
0.49100779
0.50772887
0.52431856
0.54074139
0.55696302
0.57295046
0.58867223
0.60409857
0.61920163
0.63395556
0.64833667
0.66232353
0.67589703
0.68904047
0.70173956
0.71398245
0.72575971
0.73706432
0.74789157
0.75823907
0.76810658
0.77749596
0.78641105
0.79485752
0.80284276
0.81037574
0.81746684
0.82412770
0.83037109
0.83621074
0.84166119
0.84673763
0.85145579
0.85583177
0.85988192
0.86362271
0.86707063
0.87024207
0.87315324
0.87582006
0.87825810
0.88048251
0.88250796
0.88434860
0.88601800
0.88752915
0.88889440
0.89012548
0.89123347
0.89222881
0.89312130
0.89392010
0.89463376
0.89527020
0.89583680
0.89634034
0.89678707
0.89718276
0.89753265
0.89784155
0.89811385
0.89835351
0.89856414
0.89874899
0.89891100
0.89905281
0.89917679
0.89928506
0.89937950
0.89946182
0.89953350
0.89959587
0.89965011
0.89969727
0.89973825
0.89977386
0.89980481
0.89983172
0.89985513
0.89987552
0.89989331
0.89990884
0.89992244
0.89993436
0.89994484
0.89995404
0.89996213
0.89996922
0.89997541
0.89998078
0.89998536
0.89998905
0.89999205
0.89999711
0.90001169
0.90003239
0.89997556
0.89957948
0.89843378
0.89491034
0.87060672
0.71044528
0.48993824
0.31840515
0.20303278
0.12865845
0.08135942
0.05141287
0.03248119
0.02051899
0.01296184
0.00818788
0.00517217
0.00326717
0.00206380
0.00130365
0.00082348
0.00052017
0.00032857
0.00020754
0.00013110
0.00008281
0.00005230
0.00003304
0.00002087
0.00001318
0.00000832
0.00000526
0.00000332
0.00000210
0.00000132
0.00000084
0.00000053
0.00000033
0.00000021
0.00000013
0.00000008
0.00000005
0.00000003
0.00000002
0.00000001
0.00000001
0.00000001
0.00000000
0.00000000
0.00000000
0.00000000
0.00000000
0.00000000
0.00000000
0.00000000
0.00000000
0.00000000
0.00000000
0.00000000
0.00000000
0.00000000
0.00000000
0.00000000
0.00000000
0.00000000
0.00000000
0.00000000
0.00000000
0.00000000
0.00000000
0.00000000
0.00000000
0.00000000
0.00000000
0.00000000
0.00000000
0.00000000
0.00000000
0.00000000
0.00000000
0.00000000
0.00000000
0.00000000
0.00000000
0.00000000
0.00000000
0.00000000
0.00000000
0.00000000
0.00000000
0.00000000
0.00000000
0.00000000
0.00000000
0.00000000
0.00000000
0.00000000
0.00000000
0.00000000
0.00000000
0.00000000
0.00000000
0.00000000
0.00000000
0.00000000
0.00000000
0.00000000
0.00000000
0.00000000
0.00000000
0.00000000
0.00000000
0.00000000
0.00000000
0.00000000
0.00000000
0.00000000
0.00000000
0.00000000
0.00000000
0.00000000
0.00000000
0.00000000
0.00000000
0.00000000
0.00000000
0.00000000
0.00000000
0.00000000
0.00000000
0.00000000
0.00000000
0.00000000
0.00000000
0.00000000
0.00000000
0.00000000
0.00000000
0.00000000
0.00000000
0.00000000
0.00000000
0.00000000
0.00000000
0.00000000
0.00000000
0.00000000
0.00000000
0.00000000
0.00000000
0.00000000
0.00000000
0.00000000
0.00000000
0.00000000
0.00000000
0.00000000
0.00000000
0.00000000
0.00000000
0.00000000
0.00000000
0.00000000
0.00000000
0.00000000
0.00000000
0.00000000
0.00000000
0.00000000
0.00000000
0.00000000
0.00000000
0.00000000
0.00000000
0.00000000
0.00000000
0.00000000
0.00000000
0.00000000
0.00000000
0.00000000
0.00000000
0.00000000
0.00000000
0.00000000
0.00000000
0.00000000
0.00000000
0.00000000
0.00000000
0.00000000
0.00000000
0.00000000
0.00000000
0.00000000
0.00000000
0.00000000
0.00000000
0.00000130
0.00000137
0.00000151
0.00000173
0.00000204
0.00000246
0.00000299
0.00000367
0.00000453
0.00000559
0.00000690
0.00000852
0.00001050
0.00001292
0.00001588
0.00001948
0.00002385
0.00002913
0.00003552
0.00004321
0.00005247
0.00006357
0.00007685
0.00009273
0.00011164
0.00013413
0.00016081
0.00019239
0.00022970
0.00027366
0.00032536
0.00038602
0.00045702
0.00053996
0.00063663
0.00074903
0.00087945
0.00103044
0.00120484
0.00140584
0.00163699
0.00190220
0.00220582
0.00255264
0.00294792
0.00339743
0.00390746
0.00448486
0.00513709
0.00587218
0.00669882
0.00762633
0.00866469
0.00982455
0.01111723
0.01255472
0.01414966
0.01591536
0.01786570
0.02001518
0.02237884
0.02497220
0.02781121
0.03091219
0.03429173
0.03796661
0.04195369
0.04626981
0.05093167
0.05595569
0.06135789
0.06715372
0.07335795
0.07998450
0.08704625
0.09455495
0.10252102
0.11095339
0.11985940
0.12924457
0.13911258
0.14946504
0.16030143
0.17161901
0.18341271
0.19567506
0.20839620
0.22156377
0.23516299
0.24917663
0.26358505
0.27836628
0.29349612
0.30894823
0.32469424
0.34070397
0.35694552
0.37338554
0.38998936
0.40672129
0.42354476
0.44042264
0.45731746
0.47419164
0.49100777
0.50772886
0.52431854
0.54074137
0.55696300
0.57295044
0.58867220
0.60409855
0.61920161
0.63395553
0.64833664
0.66232350
0.67589700
0.68904044
0.70173953
0.71398241
0.72575967
0.73706428
0.74789154
0.75823903
0.76810654
0.77749592
0.78641101
0.79485748
0.80284272
0.81037570
0.81746680
0.82412766
0.83037105
0.83621070
0.84166115
0.84673759
0.85145576
0.85583174
0.85988188
0.86362267
0.86707059
0.87024204
0.87315321
0.87582003
0.87825807
0.88048248
0.88250793
0.88434857
0.88601798
0.88752912
0.88889437
0.89012545
0.89123344
0.89222879
0.89312128
0.89392008
0.89463373
0.89527018
0.89583677
0.89634031
0.89678705
0.89718273
0.89753262
0.89784152
0.89811381
0.89835347
0.89856409
0.89874894
0.89891094
0.89905274
0.89917670
0.89928494
0.89937936
0.89946164
0.89953327
0.89959560
0.89964978
0.89969687
0.89973777
0.89977329
0.89980414
0.89983093
0.89985422
0.89987448
0.89989211
0.89990747
0.89992088
0.89993258
0.89994281
0.89995173
0.89995949
0.89996620
0.89997193
0.89997677
0.89998071
0.89998364
0.89998572
0.89998967
0.90000292
0.90002194
0.89996312
0.89956531
0.89842568
0.89491644
0.87060009
0.71054481
0.49000302
0.31844361
0.20305020
0.12866822
0.08136519
0.05141634
0.03248325
0.02052021
0.01296256
0.00818831
0.00517242
0.00326731
0.00206389
0.00130370
0.00082351
0.00052018
0.00032858
0.00020755
0.00013110
0.00008281
0.00005231
0.00003304
0.00002087
0.00001318
0.00000832
0.00000526
0.00000332
0.00000210
0.00000132
0.00000084
0.00000053
0.00000033
0.00000021
0.00000013
0.00000008
0.00000005
0.00000003
0.00000002
0.00000001
0.00000001
0.00000001
0.00000000
0.00000000
0.00000000
0.00000000
0.00000000
0.00000000
0.00000000
0.00000000
0.00000000
0.00000000
0.00000000
0.00000000
0.00000000
0.00000000
0.00000000
0.00000000
0.00000000
0.00000000
0.00000000
0.00000000
0.00000000
0.00000000
0.00000000
0.00000000
0.00000000
0.00000000
0.00000000
0.00000000
0.00000000
0.00000000
0.00000000
0.00000000
0.00000000
0.00000000
0.00000000
0.00000000
0.00000000
0.00000000
0.00000000
0.00000000
0.00000000
0.00000000
0.00000000
0.00000000
0.00000000
0.00000000
0.00000000
0.00000000
0.00000000
0.00000000
0.00000000
0.00000000
0.00000000
0.00000000
0.00000000
0.00000000
0.00000000
0.00000000
0.00000000
0.00000000
0.00000000
0.00000000
0.00000000
0.00000000
0.00000000
0.00000000
0.00000000
0.00000000
0.00000000
0.00000000
0.00000000
0.00000000
0.00000000
0.00000000