# vtk DataFile Version 3.0
Concentration output
ASCII
DATASET STRUCTURED_POINTS
DIMENSIONS 398 98 1
ORIGIN 0 0 0
SPACING 0.03 0.03 1.0
POINT_DATA 39004
SCALARS Variable float 1
LOOKUP_TABLE default
0.00057480
0.00058288
0.00059910
0.00062363
0.00065670
0.00069864
0.00074983
0.00081077
0.00088201
0.00096422
0.00105813
0.00116459
0.00128454
0.00141900
0.00156912
0.00173614
0.00192142
0.00212644
0.00235278
0.00260217
0.00287645
0.00317761
0.00350775
0.00386914
0.00426419
0.00469544
0.00516562
0.00567758
0.00623436
0.00683915
0.00749530
0.00820634
0.00897597
0.00980805
0.01070662
0.01167588
0.01272019
0.01384411
0.01505232
0.01634968
0.01774120
0.01923204
0.02082747
0.02253293
0.02435395
0.02629618
0.02836536
0.03056732
0.03290795
0.03539318
0.03802900
0.04082140
0.04377635
0.04689983
0.05019773
0.05367589
0.05734006
0.06119585
0.06524875
0.06950405
0.07396685
0.07864202
0.08353419
0.08864770
0.09398655
0.09955444
0.10535470
0.11139024
0.11766357
0.12417677
0.13093142
0.13792863
0.14516898
0.15265255
0.16037883
0.16834676
0.17655471
0.18500042
0.19368106
0.20259318
0.21173270
0.22109494
0.23067458
0.24046571
0.25046179
0.26065570
0.27103973
0.28160557
0.29234440
0.30324683
0.31430298
0.32550249
0.33683451
0.34828782
0.35985076
0.37151134
0.38325725
0.39507589
0.40695443
0.41887984
0.43083894
0.44281843
0.45480496
0.46678515
0.47874563
0.49067313
0.50255446
0.51437662
0.52612678
0.53779237
0.54936110
0.56082098
0.57216040
0.58336814
0.59443340
0.60534584
0.61609559
0.62667330
0.63707017
0.64727792
0.65728887
0.66709591
0.67669252
0.68607281
0.69523148
0.70416385
0.71286587
0.72133407
0.72956562
0.73755827
0.74531038
0.75282087
0.76008924
0.76711551
0.77390025
0.78044454
0.78674994
0.79281848
0.79865261
0.80425523
0.80962960
0.81477935
0.81970845
0.82442117
0.82892208
0.83321599
0.83730792
0.84120311
0.84490696
0.84842504
0.85176301
0.85492663
0.85792175
0.86075426
0.86343008
0.86595513
0.86833531
0.87057652
0.87268458
0.87466526
0.87652425
0.87826714
0.87989943
0.88142650
0.88285358
0.88418581
0.88542816
0.88658544
0.88766235
0.88866339
0.88959292
0.89045514
0.89125407
0.89199358
0.89267737
0.89330897
0.89389175
0.89442893
0.89492356
0.89537853
0.89579660
0.89618035
0.89653225
0.89685460
0.89714959
0.89741926
0.89766554
0.89789022
0.89809501
0.89828146
0.89845106
0.89860518
0.89874509
0.89887198
0.89898695
0.89909101
0.89918512
0.89927015
0.89934690
0.89941611
0.89947847
0.89953460
0.89958509
0.89963046
0.89967120
0.89970774
0.89974050
0.89976985
0.89979612
0.89981962
0.89984062
0.89985939
0.89987614
0.89989110
0.89990443
0.89991633
0.89992693
0.89993638
0.89994480
0.89995230
0.89995899
0.89996494
0.89997026
0.89997499
0.89997922
0.89998299
0.89998636
0.89998938
0.89999207
0.89999449
0.89999666
0.89999861
0.90000036
0.90000194
0.90000336
0.90000465
0.90000582
0.90000687
0.90000784
0.90000872
0.90000953
0.90001027
0.90001096
0.90001160
0.90001220
0.90001277
0.90001331
0.90001383
0.90001434
0.90001484
0.90001534
0.90001584
0.90001636
0.90001689
0.90001744
0.90001803
0.90001864
0.90001930
0.90002000
0.90002075
0.90002156
0.90002242
0.90002336
0.90002436
0.90002544
0.90002659
0.90002784
0.90002917
0.90003059
0.90003212
0.90003375
0.90003550
0.90003738
0.90003939
0.90004155
0.90004387
0.90004638
0.90004909
0.90005202
0.90005521
0.90005868
0.90006247
0.90006662
0.90007117
0.90007618
0.90008169
0.90008778
0.90009452
0.90010201
0.90011033
0.90011962
0.90013003
0.90014172
0.90015488
0.90016973
0.90018648
0.90020532
0.90022644
0.90024996
0.90027567
0.90030237
0.90032906
0.90036316
0.90043017
0.90050979
0.90019176
0.89782829
0.88856472
0.85019021
0.65482581
0.44207015
0.28547416
0.18171519
0.11511205
0.07279938
0.04601312
0.02907657
0.01837244
0.01160840
0.00733443
0.00463397
0.00292774
0.00184972
0.00116863
0.00073831
0.00046644
0.00029468
0.00018617
0.00011761
0.00007430
0.00004694
0.00002965
0.00001873
0.00001183
0.00000748
0.00000472
0.00000298
0.00000188
0.00000119
0.00000075
0.00000048
0.00000030
0.00000019
0.00000012
0.00000008
0.00000005
0.00000003
0.00000002
0.00000001
0.00000001
0.00000000
0.00000000
0.00000000
0.00000000
0.00000000
0.00000000
0.00000000
0.00000000
0.00000000
0.00000000
0.00000000
0.00000000
0.00000000
0.00000000
0.00000000
0.00000000
0.00000000
0.00000000
0.00000000
0.00000000
0.00000000
0.00000000
0.00000000
0.00000000
0.00000000
0.00000000
0.00000000
0.00000000
0.00000000
0.00000000
0.00000000
0.00000000
0.00000000
0.00000000
0.00000000
0.00000000
0.00000000
0.00000000
0.00000000
0.00000000
0.00000000
0.00000000
0.00000000
0.00000000
0.00000000
0.00000000
0.00000000
0.00000000
0.00057480
0.00058288
0.00059910
0.00062363
0.00065670
0.00069864
0.00074983
0.00081077
0.00088201
0.00096422
0.00105813
0.00116459
0.00128454
0.00141900
0.00156912
0.00173614
0.00192142
0.00212644
0.00235278
0.00260217
0.00287645
0.00317761
0.00350775
0.00386914
0.00426419
0.00469544
0.00516562
0.00567758
0.00623436
0.00683915
0.00749530
0.00820634
0.00897597
0.00980805
0.01070662
0.01167588
0.01272019
0.01384411
0.01505232
0.01634968
0.01774120
0.01923204
0.02082747
0.02253293
0.02435395
0.02629618
0.02836536
0.03056732
0.03290795
0.03539318
0.03802900
0.04082140
0.04377636
0.04689983
0.05019773
0.05367589
0.05734006
0.06119585
0.06524875
0.06950405
0.07396685
0.07864202
0.08353419
0.08864770
0.09398655
0.09955444
0.10535470
0.11139024
0.11766357
0.12417677
0.13093142
0.13792863
0.14516898
0.15265255
0.16037883
0.16834676
0.17655471
0.18500042
0.19368106
0.20259318
0.21173270
0.22109494
0.23067458
0.24046571
0.25046179
0.26065570
0.27103973
0.28160557
0.29234440
0.30324683
0.31430298
0.32550248
0.33683451
0.34828782
0.35985076
0.37151134
0.38325725
0.39507589
0.40695443
0.41887984
0.43083894
0.44281843
0.45480496
0.46678515
0.47874563
0.49067313
0.50255446
0.51437662
0.52612678
0.53779237
0.54936110
0.56082098
0.57216040
0.58336814
0.59443340
0.60534583
0.61609558
0.62667330
0.63707017
0.64727792
0.65728887
0.66709591
0.67669252
0.68607281
0.69523148
0.70416385
0.71286586
0.72133406
0.72956561
0.73755827
0.74531038
0.75282087
0.76008923
0.76711550
0.77390025
0.78044454
0.78674994
0.79281847
0.79865261
0.80425523
0.80962959
0.81477934
0.81970844
0.82442117
0.82892208
0.83321598
0.83730791
0.84120310
0.84490696
0.84842504
0.85176300
0.85492663
0.85792175
0.86075426
0.86343008
0.86595512
0.86833531
0.87057652
0.87268458
0.87466526
0.87652425
0.87826714
0.87989943
0.88142649
0.88285358
0.88418581
0.88542815
0.88658544
0.88766235
0.88866339
0.88959292
0.89045513
0.89125407
0.89199358
0.89267736
0.89330896
0.89389175
0.89442892
0.89492355
0.89537852
0.89579659
0.89618034
0.89653224
0.89685459
0.89714958
0.89741925
0.89766553
0.89789021
0.89809500
0.89828145
0.89845105
0.89860517
0.89874508
0.89887197
0.89898693
0.89909100
0.89918511
0.89927013
0.89934688
0.89941609
0.89947845
0.89953458
0.89958507
0.89963044
0.89967117
0.89970772
0.89974048
0.89976982
0.89979609
0.89981959
0.89984059
0.89985935
0.89987611
0.89989106
0.89990439
0.89991628
0.89992688
0.89993633
0.89994474
0.89995224
0.89995893
0.89996488
0.89997019
0.89997492
0.89997915
0.89998292
0.89998628
0.89998930
0.89999199
0.89999440
0.89999657
0.89999851
0.90000026
0.90000183
0.90000325
0.90000454
0.90000570
0.90000675
0.90000771
0.90000859
0.90000939
0.90001013
0.90001081
0.90001145
0.90001204
0.90001260
0.90001314
0.90001365
0.90001415
0.90001465
0.90001514
0.90001563
0.90001614
0.90001666
0.90001720
0.90001777
0.90001838
0.90001902
0.90001970
0.90002043
0.90002122
0.90002206
0.90002297
0.90002395
0.90002500
0.90002612
0.90002733
0.90002862
0.90003001
0.90003149
0.90003307
0.90003476
0.90003657
0.90003851
0.90004059
0.90004283
0.90004524
0.90004785
0.90005066
0.90005372
0.90005705
0.90006068
0.90006465
0.90006900
0.90007379
0.90007906
0.90008487
0.90009131
0.90009844
0.90010638
0.90011523
0.90012514
0.90013626
0.90014877
0.90016289
0.90017879
0.90019666
0.90021667
0.90023892
0.90026315
0.90028814
0.90031273
0.90034411
0.90040732
0.90048112
0.90015355
0.89778136
0.88852583
0.85019570
0.65490836
0.44213721
0.28553180
0.18174959
0.11513167
0.07281063
0.04601959
0.02908027
0.01837456
0.01160961
0.00733513
0.00463437
0.00292797
0.00184986
0.00116870
0.00073836
0.00046647
0.00029470
0.00018618
0.00011762
0.00007430
0.00004694
0.00002965
0.00001873
0.00001183
0.00000748
0.00000472
0.00000298
0.00000188
0.00000119
0.00000075
0.00000048
0.00000030
0.00000019
0.00000012
0.00000008
0.00000005
0.00000003
0.00000002
0.00000001
0.00000001
0.00000000
0.00000000
0.00000000
0.00000000
0.00000000
0.00000000
0.00000000
0.00000000
0.00000000
0.00000000
0.00000000
0.00000000
0.00000000
0.00000000
0.00000000
0.00000000
0.00000000
0.00000000
0.00000000
0.00000000
0.00000000
0.00000000
0.00000000
0.00000000
0.00000000
0.00000000
0.00000000
0.00000000
0.00000000
0.00000000
0.00000000
0.00000000
0.00000000
0.00000000
0.00000000
0.00000000
0.00000000
0.00000000
0.00000000
0.00000000
0.00000000
0.00000000
0.00000000
0.00000000
0.00000000
0.00000000
0.00000000
0.00000000
0.00057480
0.00058288
0.00059910
0.00062363
0.00065670
0.00069864
0.00074983
0.00081077
0.00088201
0.00096422
0.00105813
0.00116459
0.00128454
0.00141900
0.00156912
0.00173614
0.00192142
0.00212644
0.00235278
0.00260217
0.00287645
0.00317761
0.00350775
0.00386914
0.00426419
0.00469544
0.00516562
0.00567758
0.00623436
0.00683915
0.00749530
0.00820634
0.00897597
0.00980805
0.01070662
0.01167588
0.01272019
0.01384411
0.01505232
0.01634968
0.01774120
0.01923204
0.02082747
0.02253293
0.02435395
0.02629618
0.02836536
0.03056732
0.03290795
0.03539318
0.03802900
0.04082140
0.04377636
0.04689983
0.05019773
0.05367589
0.05734006
0.06119585
0.06524875
0.06950405
0.07396685
0.07864202
0.08353419
0.08864770
0.09398655
0.09955444
0.10535470
0.11139024
0.11766357
0.12417677
0.13093142
0.13792863
0.14516898
0.15265255
0.16037883
0.16834676
0.17655470
0.18500042
0.19368106
0.20259318
0.21173270
0.22109493
0.23067458
0.24046571
0.25046179
0.26065570
0.27103973
0.28160557
0.29234440
0.30324683
0.31430298
0.32550248
0.33683451
0.34828782
0.35985076
0.37151134
0.38325725
0.39507589
0.40695443
0.41887984
0.43083894
0.44281843
0.45480496
0.46678514
0.47874563
0.49067312
0.50255446
0.51437662
0.52612678
0.53779237
0.54936109
0.56082098
0.57216040
0.58336814
0.59443340
0.60534583
0.61609558
0.62667330
0.63707016
0.64727792
0.65728887
0.66709590
0.67669252
0.68607281
0.69523148
0.70416385
0.71286586
0.72133406
0.72956561
0.73755826
0.74531038
0.75282087
0.76008923
0.76711550
0.77390024
0.78044453
0.78674993
0.79281847
0.79865260
0.80425522
0.80962959
0.81477934
0.81970844
0.82442116
0.82892207
0.83321598
0.83730791
0.84120310
0.84490695
0.84842503
0.85176300
0.85492662
0.85792174
0.86075425
0.86343007
0.86595512
0.86833530
0.87057651
0.87268457
0.87466525
0.87652424
0.87826713
0.87989942
0.88142649
0.88285357
0.88418580
0.88542815
0.88658543
0.88766234
0.88866338
0.88959291
0.89045513
0.89125406
0.89199357
0.89267735
0.89330895
0.89389174
0.89442891
0.89492354
0.89537851
0.89579658
0.89618033
0.89653223
0.89685458
0.89714956
0.89741923
0.89766551
0.89789020
0.89809498
0.89828143
0.89845103
0.89860515
0.89874506
0.89887194
0.89898691
0.89909097
0.89918508
0.89927010
0.89934685
0.89941605
0.89947841
0.89953454
0.89958502
0.89963039
0.89967112
0.89970766
0.89974042
0.89976976
0.89979603
0.89981952
0.89984052
0.89985928
0.89987603
0.89989097
0.89990430
0.89991619
0.89992678
0.89993622
0.89994464
0.89995213
0.89995881
0.89996476
0.89997006
0.89997479
0.89997900
0.89998277
0.89998613
0.89998913
0.89999182
0.89999423
0.89999638
0.89999832
0.90000006
0.90000163
0.90000304
0.90000432
0.90000547
0.90000652
0.90000747
0.90000833
0.90000913
0.90000985
0.90001053
0.90001115
0.90001173
0.90001228
0.90001281
0.90001331
0.90001379
0.90001427
0.90001474
0.90001522
0.90001571
0.90001621
0.90001673
0.90001727
0.90001785
0.90001846
0.90001911
0.90001981
0.90002055
0.90002136
0.90002222
0.90002314
0.90002413
0.90002520
0.90002633
0.90002755
0.90002885
0.90003024
0.90003172
0.90003330
0.90003499
0.90003679
0.90003872
0.90004079
0.90004302
0.90004542
0.90004801
0.90005081
0.90005386
0.90005718
0.90006080
0.90006477
0.90006912
0.90007391
0.90007919
0.90008502
0.90009149
0.90009866
0.90010666
0.90011560
0.90012562
0.90013689
0.90014957
0.90016383
0.90017983
0.90019771
0.90021753
0.90023900
0.90026077
0.90028156
0.90030830
0.90036549
0.90043084
0.90009183
0.89770755
0.88848785
0.85022288
0.65517869
0.44232922
0.28564405
0.18181850
0.11517060
0.07283262
0.04603214
0.02908744
0.01837867
0.01161196
0.00733648
0.00463515
0.00292842
0.00185011
0.00116885
0.00073844
0.00046652
0.00029473
0.00018619
0.00011763
0.00007431
0.00004694
0.00002966
0.00001873
0.00001184
0.00000748
0.00000472
0.00000298
0.00000188
0.00000119
0.00000075
0.00000048
0.00000030
0.00000019
0.00000012
0.00000008
0.00000005
0.00000003
0.00000002
0.00000001
0.00000001
0.00000000
0.00000000
0.00000000
0.00000000
0.00000000
0.00000000
0.00000000
0.00000000
0.00000000
0.00000000
0.00000000
0.00000000
0.00000000
0.00000000
0.00000000
0.00000000
0.00000000
0.00000000
0.00000000
0.00000000
0.00000000
0.00000000
0.00000000
0.00000000
0.00000000
0.00000000
0.00000000
0.00000000
0.00000000
0.00000000
0.00000000
0.00000000
0.00000000
0.00000000
0.00000000
0.00000000
0.00000000
0.00000000
0.00000000
0.00000000
0.00000000
0.00000000
0.00000000
0.00000000
0.00000000
0.00000000
0.00000000
0.00000000
0.00057480
0.00058288
0.00059910
0.00062363
0.00065670
0.00069864
0.00074983
0.00081077
0.00088201
0.00096422
0.00105813
0.00116459
0.00128454
0.00141900
0.00156912
0.00173614
0.00192142
0.00212644
0.00235278
0.00260217
0.00287645
0.00317761
0.00350775
0.00386914
0.00426419
0.00469544
0.00516562
0.00567758
0.00623436
0.00683915
0.00749530
0.00820634
0.00897597
0.00980805
0.01070662
0.01167588
0.01272019
0.01384411
0.01505232
0.01634968
0.01774120
0.01923204
0.02082747
0.02253293
0.02435395
0.02629618
0.02836536
0.03056732
0.03290795
0.03539318
0.03802900
0.04082140
0.04377636
0.04689983
0.05019773
0.05367589
0.05734006
0.06119585
0.06524875
0.06950405
0.07396685
0.07864202
0.08353419
0.08864770
0.09398655
0.09955444
0.10535470
0.11139024
0.11766357
0.12417677
0.13093142
0.13792863
0.14516898
0.15265255
0.16037883
0.16834676
0.17655470
0.18500042
0.19368106
0.20259318
0.21173270
0.22109493
0.23067458
0.24046571
0.25046179
0.26065570
0.27103973
0.28160557
0.29234440
0.30324683
0.31430298
0.32550248
0.33683451
0.34828782
0.35985076
0.37151134
0.38325725
0.39507589
0.40695443
0.41887984
0.43083894
0.44281843
0.45480496
0.46678514
0.47874562
0.49067312
0.50255446
0.51437662
0.52612678
0.53779237
0.54936109
0.56082097
0.57216039
0.58336813
0.59443339
0.60534583
0.61609557
0.62667329
0.63707016
0.64727791
0.65728886
0.66709590
0.67669251
0.68607280
0.69523147
0.70416384
0.71286585
0.72133405
0.72956560
0.73755826
0.74531037
0.75282086
0.76008922
0.76711549
0.77390023
0.78044453
0.78674993
0.79281846
0.79865260
0.80425521
0.80962958
0.81477933
0.81970843
0.82442116
0.82892207
0.83321597
0.83730790
0.84120309
0.84490695
0.84842502
0.85176299
0.85492661
0.85792173
0.86075424
0.86343006
0.86595511
0.86833529
0.87057650
0.87268456
0.87466524
0.87652423
0.87826712
0.87989941
0.88142648
0.88285356
0.88418579
0.88542813
0.88658542
0.88766233
0.88866337
0.88959290
0.89045511
0.89125404
0.89199355
0.89267734
0.89330894
0.89389172
0.89442890
0.89492352
0.89537850
0.89579656
0.89618031
0.89653221
0.89685456
0.89714954
0.89741921
0.89766549
0.89789017
0.89809495
0.89828141
0.89845100
0.89860512
0.89874502
0.89887191
0.89898687
0.89909093
0.89918503
0.89927005
0.89934680
0.89941600
0.89947835
0.89953448
0.89958496
0.89963032
0.89967105
0.89970759
0.89974034
0.89976968
0.89979594
0.89981942
0.89984042
0.89985917
0.89987591
0.89989085
0.89990417
0.89991605
0.89992664
0.89993607
0.89994448
0.89995196
0.89995863
0.89996457
0.89996987
0.89997458
0.89997879
0.89998255
0.89998590
0.89998889
0.89999157
0.89999397
0.89999611
0.89999804
0.89999977
0.90000132
0.90000272
0.90000399
0.90000513
0.90000616
0.90000710
0.90000795
0.90000873
0.90000945
0.90001010
0.90001071
0.90001128
0.90001181
0.90001231
0.90001279
0.90001326
0.90001371
0.90001416
0.90001461
0.90001507
0.90001554
0.90001603
0.90001653
0.90001707
0.90001764
0.90001824
0.90001889
0.90001958
0.90002032
0.90002111
0.90002196
0.90002287
0.90002384
0.90002488
0.90002599
0.90002717
0.90002842
0.90002976
0.90003118
0.90003269
0.90003429
0.90003601
0.90003784
0.90003979
0.90004190
0.90004416
0.90004660
0.90004925
0.90005212
0.90005524
0.90005865
0.90006239
0.90006649
0.90007100
0.90007597
0.90008147
0.90008756
0.90009434
0.90010189
0.90011035
0.90011983
0.90013048
0.90014243
0.90015580
0.90017069
0.90018714
0.90020481
0.90022228
0.90023814
0.90025914
0.90030950
0.90036614
0.90001611
0.89763074
0.88842938
0.85041948
0.65564772
0.44261665
0.28581008
0.18191466
0.11522542
0.07286410
0.04605010
0.02909771
0.01838455
0.01161534
0.00733843
0.00463627
0.00292907
0.00185049
0.00116907
0.00073857
0.00046659
0.00029477
0.00018622
0.00011764
0.00007432
0.00004695
0.00002966
0.00001874
0.00001184
0.00000748
0.00000472
0.00000298
0.00000188
0.00000119
0.00000075
0.00000048
0.00000030
0.00000019
0.00000012
0.00000008
0.00000005
0.00000003
0.00000002
0.00000001
0.00000001
0.00000000
0.00000000
0.00000000
0.00000000
0.00000000
0.00000000
0.00000000
0.00000000
0.00000000
0.00000000
0.00000000
0.00000000
0.00000000
0.00000000
0.00000000
0.00000000
0.00000000
0.00000000
0.00000000
0.00000000
0.00000000
0.00000000
0.00000000
0.00000000
0.00000000
0.00000000
0.00000000
0.00000000
0.00000000
0.00000000
0.00000000
0.00000000
0.00000000
0.00000000
0.00000000
0.00000000
0.00000000
0.00000000
0.00000000
0.00000000
0.00000000
0.00000000
0.00000000
0.00000000
0.00000000
0.00000000
0.00000000
0.00000000
0.00057480
0.00058288
0.00059910
0.00062363
0.00065670
0.00069864
0.00074983
0.00081077
0.00088201
0.00096422
0.00105813
0.00116459
0.00128454
0.00141900
0.00156912
0.00173614
0.00192142
0.00212644
0.00235278
0.00260217
0.00287645
0.00317761
0.00350775
0.00386914
0.00426419
0.00469544
0.00516562
0.00567758
0.00623436
0.00683915
0.00749530
0.00820634
0.00897597
0.00980805
0.01070662
0.01167588
0.01272019
0.01384411
0.01505232
0.01634968
0.01774120
0.01923204
0.02082747
0.02253293
0.02435395
0.02629618
0.02836536
0.03056732
0.03290795
0.03539318
0.03802900
0.04082140
0.04377636
0.04689983
0.05019773
0.05367589
0.05734006
0.06119585
0.06524875
0.06950405
0.07396685
0.07864202
0.08353419
0.08864770
0.09398655
0.09955444
0.10535470
0.11139024
0.11766357
0.12417677
0.13093142
0.13792863
0.14516898
0.15265255
0.16037883
0.16834676
0.17655470
0.18500042
0.19368106
0.20259318
0.21173270
0.22109493
0.23067458
0.24046571
0.25046179
0.26065570
0.27103972
0.28160557
0.29234440
0.30324683
0.31430298
0.32550248
0.33683451
0.34828781
0.35985075
0.37151134
0.38325724
0.39507588
0.40695442
0.41887983
0.43083893
0.44281843
0.45480495
0.46678514
0.47874562
0.49067312
0.50255445
0.51437661
0.52612677
0.53779236
0.54936108
0.56082097
0.57216039
0.58336813
0.59443339
0.60534582
0.61609557
0.62667328
0.63707015
0.64727790
0.65728885
0.66709589
0.67669250
0.68607279
0.69523146
0.70416383
0.71286584
0.72133404
0.72956559
0.73755825
0.74531036
0.75282085
0.76008921
0.76711548
0.77390022
0.78044451
0.78674991
0.79281845
0.79865258
0.80425520
0.80962957
0.81477932
0.81970842
0.82442114
0.82892205
0.83321596
0.83730789
0.84120308
0.84490693
0.84842501
0.85176297
0.85492660
0.85792172
0.86075423
0.86343005
0.86595509
0.86833528
0.87057649
0.87268455
0.87466523
0.87652421
0.87826711
0.87989940
0.88142646
0.88285355
0.88418578
0.88542812
0.88658541
0.88766231
0.88866335
0.88959288
0.89045510
0.89125403
0.89199354
0.89267732
0.89330892
0.89389170
0.89442888
0.89492350
0.89537847
0.89579654
0.89618029
0.89653218
0.89685453
0.89714951
0.89741918
0.89766546
0.89789014
0.89809492
0.89828137
0.89845096
0.89860507
0.89874498
0.89887186
0.89898682
0.89909088
0.89918498
0.89926999
0.89934673
0.89941593
0.89947828
0.89953440
0.89958488
0.89963023
0.89967096
0.89970749
0.89974023
0.89976956
0.89979582
0.89981930
0.89984028
0.89985903
0.89987576
0.89989069
0.89990401
0.89991587
0.89992645
0.89993587
0.89994427
0.89995174
0.89995840
0.89996433
0.89996961
0.89997432
0.89997851
0.89998226
0.89998559
0.89998858
0.89999124
0.89999362
0.89999575
0.89999767
0.89999938
0.90000092
0.90000231
0.90000355
0.90000468
0.90000570
0.90000662
0.90000745
0.90000822
0.90000891
0.90000955
0.90001014
0.90001068
0.90001119
0.90001167
0.90001212
0.90001256
0.90001299
0.90001341
0.90001382
0.90001424
0.90001467
0.90001512
0.90001558
0.90001606
0.90001657
0.90001712
0.90001770
0.90001831
0.90001898
0.90001968
0.90002044
0.90002124
0.90002210
0.90002301
0.90002398
0.90002501
0.90002610
0.90002725
0.90002846
0.90002975
0.90003111
0.90003255
0.90003408
0.90003570
0.90003743
0.90003928
0.90004127
0.90004340
0.90004571
0.90004821
0.90005093
0.90005389
0.90005713
0.90006068
0.90006457
0.90006886
0.90007361
0.90007886
0.90008470
0.90009121
0.90009849
0.90010664
0.90011575
0.90012589
0.90013715
0.90014955
0.90016272
0.90017521
0.90018558
0.90020050
0.90024394
0.90029248
0.89993681
0.89756392
0.88846234
0.85058019
0.65604794
0.44293775
0.28601845
0.18203432
0.11529425
0.07290338
0.04607252
0.02911055
0.01839192
0.01161958
0.00734087
0.00463768
0.00292988
0.00185096
0.00116934
0.00073873
0.00046668
0.00029482
0.00018625
0.00011766
0.00007433
0.00004696
0.00002966
0.00001874
0.00001184
0.00000748
0.00000472
0.00000298
0.00000189
0.00000119
0.00000075
0.00000048
0.00000030
0.00000019
0.00000012
0.00000008
0.00000005
0.00000003
0.00000002
0.00000001
0.00000001
0.00000000
0.00000000
0.00000000
0.00000000
0.00000000
0.00000000
0.00000000
0.00000000
0.00000000
0.00000000
0.00000000
0.00000000
0.00000000
0.00000000
0.00000000
0.00000000
0.00000000
0.00000000
0.00000000
0.00000000
0.00000000
0.00000000
0.00000000
0.00000000
0.00000000
0.00000000
0.00000000
0.00000000
0.00000000
0.00000000
0.00000000
0.00000000
0.00000000
0.00000000
0.00000000
0.00000000
0.00000000
0.00000000
0.00000000
0.00000000
0.00000000
0.00000000
0.00000000
0.00000000
0.00000000
0.00000000
0.00000000
0.00000000
0.00057480
0.00058288
0.00059910
0.00062363
0.00065670
0.00069864
0.00074983
0.00081077
0.00088201
0.00096422
0.00105813
0.00116459
0.00128454
0.00141900
0.00156912
0.00173614
0.00192142
0.00212644
0.00235278
0.00260217
0.00287645
0.00317761
0.00350775
0.00386914
0.00426419
0.00469544
0.00516562
0.00567758
0.00623436
0.00683915
0.00749530
0.00820634
0.00897597
0.00980805
0.01070662
0.01167588
0.01272019
0.01384411
0.01505232
0.01634968
0.01774120
0.01923204
0.02082747
0.02253293
0.02435395
0.02629618
0.02836536
0.03056732
0.03290795
0.03539318
0.03802900
0.04082140
0.04377636
0.04689983
0.05019773
0.05367589
0.05734006
0.06119585
0.06524875
0.06950405
0.07396685
0.07864202
0.08353420
0.08864770
0.09398655
0.09955444
0.10535470
0.11139024
0.11766357
0.12417677
0.13093142
0.13792863
0.14516898
0.15265255
0.16037883
0.16834676
0.17655470
0.18500042
0.19368106
0.20259318
0.21173270
0.22109493
0.23067458
0.24046570
0.25046179
0.26065570
0.27103972
0.28160557
0.29234439
0.30324682
0.31430298
0.32550248
0.33683451
0.34828781
0.35985075
0.37151133
0.38325724
0.39507588
0.40695442
0.41887983
0.43083893
0.44281842
0.45480495
0.46678513
0.47874562
0.49067311
0.50255445
0.51437660
0.52612677
0.53779235
0.54936108
0.56082096
0.57216038
0.58336812
0.59443338
0.60534581
0.61609556
0.62667327
0.63707014
0.64727789
0.65728884
0.66709588
0.67669249
0.68607278
0.69523145
0.70416382
0.71286583
0.72133403
0.72956558
0.73755824
0.74531035
0.75282084
0.76008920
0.76711547
0.77390021
0.78044450
0.78674990
0.79281844
0.79865257
0.80425519
0.80962955
0.81477930
0.81970840
0.82442113
0.82892204
0.83321594
0.83730787
0.84120306
0.84490692
0.84842499
0.85176296
0.85492658
0.85792171
0.86075422
0.86343003
0.86595508
0.86833526
0.87057647
0.87268453
0.87466521
0.87652420
0.87826709
0.87989938
0.88142644
0.88285353
0.88418576
0.88542810
0.88658539
0.88766229
0.88866333
0.88959286
0.89045508
0.89125401
0.89199351
0.89267730
0.89330890
0.89389168
0.89442885
0.89492348
0.89537845
0.89579651
0.89618026
0.89653215
0.89685450
0.89714948
0.89741915
0.89766542
0.89789010
0.89809487
0.89828132
0.89845091
0.89860502
0.89874492
0.89887180
0.89898676
0.89909081
0.89918491
0.89926992
0.89934665
0.89941585
0.89947819
0.89953431
0.89958477
0.89963012
0.89967084
0.89970736
0.89974010
0.89976943
0.89979567
0.89981914
0.89984012
0.89985885
0.89987557
0.89989049
0.89990380
0.89991566
0.89992622
0.89993563
0.89994401
0.89995147
0.89995812
0.89996403
0.89996930
0.89997399
0.89997817
0.89998190
0.89998522
0.89998819
0.89999084
0.89999320
0.89999532
0.89999721
0.89999891
0.90000043
0.90000180
0.90000303
0.90000413
0.90000513
0.90000603
0.90000685
0.90000758
0.90000826
0.90000887
0.90000943
0.90000995
0.90001043
0.90001088
0.90001131
0.90001171
0.90001210
0.90001249
0.90001286
0.90001324
0.90001362
0.90001401
0.90001442
0.90001484
0.90001529
0.90001576
0.90001626
0.90001680
0.90001737
0.90001797
0.90001861
0.90001930
0.90002002
0.90002079
0.90002160
0.90002245
0.90002334
0.90002428
0.90002526
0.90002628
0.90002736
0.90002848
0.90002966
0.90003089
0.90003219
0.90003357
0.90003503
0.90003658
0.90003824
0.90004003
0.90004194
0.90004401
0.90004626
0.90004870
0.90005136
0.90005427
0.90005746
0.90006098
0.90006486
0.90006916
0.90007395
0.90007927
0.90008517
0.90009171
0.90009894
0.90010688
0.90011516
0.90012239
0.90012714
0.90013608
0.90017288
0.90021348
0.89984913
0.89748768
0.88845503
0.85097071
0.65651080
0.44332812
0.28625894
0.18217193
0.11537269
0.07294824
0.04609822
0.02912529
0.01840040
0.01162448
0.00734370
0.00463932
0.00293083
0.00185151
0.00116966
0.00073891
0.00046679
0.00029488
0.00018629
0.00011768
0.00007434
0.00004696
0.00002967
0.00001874
0.00001184
0.00000748
0.00000472
0.00000298
0.00000189
0.00000119
0.00000075
0.00000048
0.00000030
0.00000019
0.00000012
0.00000008
0.00000005
0.00000003
0.00000002
0.00000001
0.00000001
0.00000000
0.00000000
0.00000000
0.00000000
0.00000000
0.00000000
0.00000000
0.00000000
0.00000000
0.00000000
0.00000000
0.00000000
0.00000000
0.00000000
0.00000000
0.00000000
0.00000000
0.00000000
0.00000000
0.00000000
0.00000000
0.00000000
0.00000000
0.00000000
0.00000000
0.00000000
0.00000000
0.00000000
0.00000000
0.00000000
0.00000000
0.00000000
0.00000000
0.00000000
0.00000000
0.00000000
0.00000000
0.00000000
0.00000000
0.00000000
0.00000000
0.00000000
0.00000000
0.00000000
0.00000000
0.00000000
0.00000000
0.00000000
0.00057480
0.00058288
0.00059910
0.00062363
0.00065670
0.00069864
0.00074983
0.00081077
0.00088201
0.00096422
0.00105813
0.00116459
0.00128454
0.00141900
0.00156912
0.00173614
0.00192142
0.00212644
0.00235278
0.00260217
0.00287645
0.00317761
0.00350775
0.00386914
0.00426419
0.00469544
0.00516562
0.00567758
0.00623436
0.00683915
0.00749530
0.00820634
0.00897597
0.00980805
0.01070662
0.01167588
0.01272019
0.01384411
0.01505232
0.01634968
0.01774120
0.01923204
0.02082747
0.02253293
0.02435395
0.02629618
0.02836536
0.03056732
0.03290795
0.03539318
0.03802900
0.04082140
0.04377636
0.04689983
0.05019773
0.05367589
0.05734006
0.06119585
0.06524875
0.06950405
0.07396685
0.07864202
0.08353420
0.08864770
0.09398655
0.09955445
0.10535470
0.11139024
0.11766357
0.12417677
0.13093142
0.13792863
0.14516898
0.15265255
0.16037883
0.16834676
0.17655470
0.18500042
0.19368106
0.20259318
0.21173270
0.22109493
0.23067457
0.24046570
0.25046179
0.26065570
0.27103972
0.28160557
0.29234439
0.30324682
0.31430297
0.32550248
0.33683450
0.34828781
0.35985075
0.37151133
0.38325724
0.39507588
0.40695442
0.41887983
0.43083892
0.44281842
0.45480494
0.46678513
0.47874561
0.49067311
0.50255444
0.51437660
0.52612676
0.53779235
0.54936107
0.56082095
0.57216037
0.58336811
0.59443337
0.60534580
0.61609555
0.62667326
0.63707013
0.64727788
0.65728883
0.66709587
0.67669248
0.68607277
0.69523144
0.70416381
0.71286582
0.72133402
0.72956557
0.73755822
0.74531033
0.75282082
0.76008918
0.76711545
0.77390020
0.78044449
0.78674989
0.79281842
0.79865255
0.80425517
0.80962954
0.81477929
0.81970839
0.82442111
0.82892202
0.83321592
0.83730785
0.84120304
0.84490690
0.84842498
0.85176294
0.85492656
0.85792169
0.86075420
0.86343001
0.86595506
0.86833525
0.87057645
0.87268451
0.87466519
0.87652418
0.87826707
0.87989936
0.88142642
0.88285351
0.88418574
0.88542808
0.88658537
0.88766227
0.88866331
0.88959284
0.89045505
0.89125398
0.89199349
0.89267727
0.89330887
0.89389165
0.89442882
0.89492345
0.89537841
0.89579647
0.89618022
0.89653211
0.89685446
0.89714944
0.89741910
0.89766537
0.89789005
0.89809482
0.89828127
0.89845086
0.89860496
0.89874486
0.89887173
0.89898668
0.89909073
0.89918482
0.89926983
0.89934656
0.89941575
0.89947808
0.89953419
0.89958465
0.89963000
0.89967070
0.89970722
0.89973995
0.89976926
0.89979550
0.89981896
0.89983992
0.89985865
0.89987536
0.89989026
0.89990355
0.89991540
0.89992595
0.89993535
0.89994371
0.89995116
0.89995779
0.89996369
0.89996894
0.89997361
0.89997777
0.89998148
0.89998479
0.89998773
0.89999036
0.89999271
0.89999481
0.89999668
0.89999836
0.89999986
0.90000120
0.90000241
0.90000349
0.90000447
0.90000534
0.90000613
0.90000685
0.90000749
0.90000808
0.90000862
0.90000910
0.90000955
0.90000997
0.90001036
0.90001073
0.90001108
0.90001142
0.90001175
0.90001208
0.90001241
0.90001274
0.90001309
0.90001344
0.90001382
0.90001421
0.90001462
0.90001506
0.90001553
0.90001602
0.90001654
0.90001709
0.90001767
0.90001827
0.90001890
0.90001956
0.90002024
0.90002094
0.90002167
0.90002241
0.90002317
0.90002395
0.90002474
0.90002556
0.90002640
0.90002726
0.90002814
0.90002907
0.90003002
0.90003103
0.90003208
0.90003319
0.90003437
0.90003561
0.90003695
0.90003837
0.90003990
0.90004156
0.90004335
0.90004530
0.90004742
0.90004975
0.90005228
0.90005504
0.90005806
0.90006138
0.90006469
0.90006664
0.90006592
0.90006929
0.90010011
0.90013281
0.89975675
0.89738552
0.88841123
0.85108445
0.65708605
0.44371928
0.28650275
0.18231653
0.11545682
0.07299649
0.04612591
0.02914124
0.01840961
0.01162981
0.00734679
0.00464111