# vtk DataFile Version 3.0
Concentration output
ASCII
DATASET STRUCTURED_POINTS
DIMENSIONS 398 98 1
ORIGIN 0 0 0
SPACING 0.03 0.03 1.0
POINT_DATA 39004
SCALARS Variable float 1
LOOKUP_TABLE default
0.00000000
0.00000000
0.00000000
0.00000000
0.00000000
0.00000000
0.00000000
0.00000000
0.00000000
0.00000000
0.00000000
0.00000000
0.00000000
0.00000000
0.00000000
0.00000000
0.00000001
0.00000001
0.00000001
0.00000002
0.00000003
0.00000004
0.00000005
0.00000008
0.00000011
0.00000015
0.00000022
0.00000031
0.00000043
0.00000060
0.00000084
0.00000116
0.00000160
0.00000221
0.00000302
0.00000413
0.00000561
0.00000759
0.00001023
0.00001373
0.00001835
0.00002442
0.00003237
0.00004272
0.00005615
0.00007350
0.00009580
0.00012435
0.00016074
0.00020691
0.00026524
0.00033861
0.00043049
0.00054502
0.00068717
0.00086283
0.00107893
0.00134359
0.00166629
0.00205803
0.00253146
0.00310106
0.00378334
0.00459694
0.00556283
0.00670442
0.00804764
0.00962106
0.01145594
0.01358617
0.01604825
0.01888118
0.02212627
0.02582688
0.03002809
0.03477631
0.04011877
0.04610297
0.05277600
0.06018389
0.06837076
0.07737806
0.08724365
0.09800099
0.10967819
0.12229719
0.13587294
0.15041267
0.16591516
0.18237026
0.19975843
0.21805047
0.23720739
0.25718050
0.27791164
0.29933358
0.32137065
0.34393954
0.36695018
0.39030687
0.41390946
0.43765466
0.46143743
0.48515233
0.50869498
0.53196345
0.55485954
0.57729009
0.59916808
0.62041361
0.64095481
0.66072844
0.67968045
0.69776630
0.71495106
0.73120942
0.74652545
0.76089229
0.77431166
0.78679320
0.79835386
0.80901707
0.81881193
0.82777238
0.83593631
0.84334475
0.85004100
0.85606990
0.86147709
0.86630834
0.87060898
0.87442339
0.87779455
0.88076371
0.88337010
0.88565070
0.88764011
0.88937045
0.89087132
0.89216978
0.89329042
0.89425535
0.89508430
0.89579472
0.89640262
0.89692431
0.89737529
0.89775141
0.89798406
0.89794689
0.89759141
0.89553380
0.87382395
0.73292352
0.51092842
0.33302902
0.21238466
0.13447757
0.08493509
0.05359203
0.03379922
0.02130953
0.01343129
0.00846323
0.00533112
0.00335700
0.00211311
0.00132957
0.00083619
0.00052563
0.00033023
0.00020735
0.00013011
0.00008158
0.00005112
0.00003201
0.00002002
0.00001251
0.00000781
0.00000487
0.00000304
0.00000189
0.00000117
0.00000073
0.00000045
0.00000028
0.00000017
0.00000011
0.00000007
0.00000004
0.00000002
0.00000002
0.00000001
0.00000001
0.00000000
0.00000000
0.00000000
0.00000000
0.00000000
0.00000000
0.00000000
0.00000000
0.00000000
0.00000000
0.00000000
0.00000000
0.00000000
0.00000000
0.00000000
0.00000000
0.00000000
0.00000000
0.00000000
0.00000000
0.00000000
0.00000000
0.00000000
0.00000000
0.00000000
0.00000000
0.00000000
0.00000000
0.00000000
0.00000000
0.00000000
0.00000000
0.00000000
0.00000000
0.00000000
0.00000000
0.00000000
0.00000000
0.00000000
0.00000000
0.00000000
0.00000000
0.00000000
0.00000000
0.00000000
0.00000000
0.00000000
0.00000000
0.00000000
0.00000000
0.00000000
0.00000000
0.00000000
0.00000000
0.00000000
0.00000000
0.00000000
0.00000000
0.00000000
0.00000000
0.00000000
0.00000000
0.00000000
0.00000000
0.00000000
0.00000000
0.00000000
0.00000000
0.00000000
0.00000000
0.00000000
0.00000000
0.00000000
0.00000000
0.00000000
0.00000000
0.00000000
0.00000000
0.00000000
0.00000000
0.00000000
0.00000000
0.00000000
0.00000000
0.00000000
0.00000000
0.00000000
0.00000000
0.00000000
0.00000000
0.00000000
0.00000000
0.00000000
0.00000000
0.00000000
0.00000000
0.00000000
0.00000000
0.00000000
0.00000000
0.00000000
0.00000000
0.00000000
0.00000000
0.00000000
0.00000000
0.00000000
0.00000000
0.00000000
0.00000000
0.00000000
0.00000000
0.00000000
0.00000000
0.00000000
0.00000000
0.00000000
0.00000000
0.00000000
0.00000000
0.00000000
0.00000000
0.00000000
0.00000000
0.00000000
0.00000000
0.00000000
0.00000000
0.00000000
0.00000000
0.00000000
0.00000000
0.00000000
0.00000000
0.00000000
0.00000000
0.00000000
0.00000000
0.00000000
0.00000000
0.00000000
0.00000000
0.00000000
0.00000000
0.00000000
0.00000000
0.00000000
0.00000000
0.00000000
0.00000000
0.00000000
0.00000000
0.00000000
0.00000000
0.00000000
0.00000000
0.00000000
0.00000000
0.00000000
0.00000000
0.00000000
0.00000000
0.00000000
0.00000000
0.00000000
0.00000000
0.00000000
0.00000000
0.00000000
0.00000000
0.00000000
0.00000000
0.00000000
0.00000000
0.00000000
0.00000000
0.00000000
0.00000000
0.00000000
0.00000000
0.00000000
0.00000000
0.00000000
0.00000000
0.00000000
0.00000000
0.00000000
0.00000000
0.00000000
0.00000000
0.00000000
0.00000000
0.00000000
0.00000000
0.00000000
0.00000000
0.00000000
0.00000000
0.00000000
0.00000000
0.00000000
0.00000000
0.00000000
0.00000000
0.00000000
0.00000000
0.00000000
0.00000000
0.00000000
0.00000000
0.00000000
0.00000000
0.00000000
0.00000000
0.00000000
0.00000000
0.00000000
0.00000000
0.00000000
0.00000000
0.00000001
0.00000001
0.00000001
0.00000002
0.00000003
0.00000004
0.00000005
0.00000008
0.00000011
0.00000015
0.00000022
0.00000031
0.00000043
0.00000060
0.00000084
0.00000116
0.00000160
0.00000221
0.00000302
0.00000413
0.00000561
0.00000759
0.00001023
0.00001373
0.00001835
0.00002442
0.00003237
0.00004272
0.00005615
0.00007350
0.00009580
0.00012435
0.00016074
0.00020691
0.00026524
0.00033861
0.00043049
0.00054502
0.00068717
0.00086283
0.00107893
0.00134359
0.00166629
0.00205803
0.00253146
0.00310106
0.00378334
0.00459694
0.00556283
0.00670442
0.00804764
0.00962107
0.01145594
0.01358617
0.01604825
0.01888118
0.02212627
0.02582688
0.03002809
0.03477631
0.04011877
0.04610297
0.05277600
0.06018389
0.06837076
0.07737806
0.08724365
0.09800099
0.10967818
0.12229719
0.13587294
0.15041267
0.16591516
0.18237026
0.19975843
0.21805047
0.23720739
0.25718050
0.27791163
0.29933357
0.32137065
0.34393953
0.36695017
0.39030686
0.41390944
0.43765465
0.46143741
0.48515231
0.50869496
0.53196343
0.55485952
0.57729007
0.59916805
0.62041359
0.64095478
0.66072841
0.67968042
0.69776627
0.71495102
0.73120937
0.74652540
0.76089225
0.77431161
0.78679315
0.79835381
0.80901701
0.81881187
0.82777232
0.83593625
0.84334468
0.85004093
0.85606983
0.86147703
0.86630828
0.87060892
0.87442334
0.87779451
0.88076369
0.88337009
0.88565070
0.88764013
0.88937050
0.89087140
0.89216991
0.89329059
0.89425560
0.89508462
0.89579510
0.89640300
0.89692455
0.89737515
0.89775055
0.89798218
0.89794337
0.89758927
0.89553072
0.87381944
0.73278834
0.51093407
0.33302894
0.21238845
0.13447803
0.08493500
0.05359198
0.03379918
0.02130950
0.01343128
0.00846322
0.00533111
0.00335700
0.00211310
0.00132957
0.00083618
0.00052563
0.00033023
0.00020735
0.00013011
0.00008158
0.00005112
0.00003201
0.00002002
0.00001251
0.00000781
0.00000487
0.00000304
0.00000189
0.00000117
0.00000073
0.00000045
0.00000028
0.00000017
0.00000011
0.00000007
0.00000004
0.00000002
0.00000002
0.00000001
0.00000001
0.00000000
0.00000000
0.00000000
0.00000000
0.00000000
0.00000000
0.00000000
0.00000000
0.00000000
0.00000000
0.00000000
0.00000000
0.00000000
0.00000000
0.00000000
0.00000000
0.00000000
0.00000000
0.00000000
0.00000000
0.00000000
0.00000000
0.00000000
0.00000000
0.00000000
0.00000000
0.00000000
0.00000000
0.00000000
0.00000000
0.00000000
0.00000000
0.00000000
0.00000000
0.00000000
0.00000000
0.00000000
0.00000000
0.00000000
0.00000000
0.00000000
0.00000000
0.00000000
0.00000000
0.00000000
0.00000000
0.00000000
0.00000000
0.00000000
0.00000000
0.00000000
0.00000000
0.00000000
0.00000000
0.00000000
0.00000000
0.00000000
0.00000000
0.00000000
0.00000000
0.00000000
0.00000000
0.00000000
0.00000000
0.00000000
0.00000000
0.00000000
0.00000000
0.00000000
0.00000000
0.00000000
0.00000000
0.00000000
0.00000000
0.00000000
0.00000000
0.00000000
0.00000000
0.00000000
0.00000000
0.00000000
0.00000000
0.00000000
0.00000000
0.00000000
0.00000000
0.00000000
0.00000000
0.00000000
0.00000000
0.00000000
0.00000000
0.00000000
0.00000000
0.00000000
0.00000000
0.00000000
0.00000000
0.00000000
0.00000000
0.00000000
0.00000000
0.00000000
0.00000000
0.00000000
0.00000000
0.00000000
0.00000000
0.00000000
0.00000000
0.00000000
0.00000000
0.00000000
0.00000000
0.00000000
0.00000000
0.00000000
0.00000000
0.00000000
0.00000000
0.00000000
0.00000000
0.00000000
0.00000000
0.00000000
0.00000000
0.00000000
0.00000000
0.00000000
0.00000000
0.00000000
0.00000000
0.00000000
0.00000000
0.00000000
0.00000000
0.00000000
0.00000000
0.00000000
0.00000000
0.00000000
0.00000000
0.00000000
0.00000000
0.00000000
0.00000000
0.00000000
0.00000000
0.00000000
0.00000000
0.00000000
0.00000000
0.00000000
0.00000000
0.00000000
0.00000000
0.00000000
0.00000000
0.00000000
0.00000000
0.00000000
0.00000000
0.00000000
0.00000000
0.00000000
0.00000000
0.00000000
0.00000000
0.00000000
0.00000000
0.00000000
0.00000000
0.00000000
0.00000000
0.00000000
0.00000000
0.00000000
0.00000000
0.00000000
0.00000000
0.00000000
0.00000000
0.00000000
0.00000000
0.00000000
0.00000000
0.00000000
0.00000000
0.00000000
0.00000000
0.00000000
0.00000000
0.00000000
0.00000000
0.00000000
0.00000000
0.00000000
0.00000000
0.00000000
0.00000000
0.00000000
0.00000000
0.00000000
0.00000000
0.00000000
0.00000000
0.00000000
0.00000000
0.00000000
0.00000000
0.00000000
0.00000000
0.00000000
0.00000000
0.00000000
0.00000000
0.00000000
0.00000000
0.00000000
0.00000000
0.00000001
0.00000001
0.00000001
0.00000002
0.00000003
0.00000004
0.00000005
0.00000008
0.00000011
0.00000015
0.00000022
0.00000031
0.00000043
0.00000060
0.00000084
0.00000116
0.00000160
0.00000221
0.00000302
0.00000413
0.00000561
0.00000759
0.00001023
0.00001373
0.00001835
0.00002442
0.00003237
0.00004272
0.00005615
0.00007350
0.00009580
0.00012435
0.00016074
0.00020691
0.00026524
0.00033861
0.00043049
0.00054502
0.00068717
0.00086283
0.00107893
0.00134359
0.00166629
0.00205803
0.00253146
0.00310106
0.00378334
0.00459694
0.00556283
0.00670442
0.00804764
0.00962107
0.01145594
0.01358617
0.01604825
0.01888118
0.02212627
0.02582688
0.03002809
0.03477631
0.04011877
0.04610297
0.05277600
0.06018389
0.06837076
0.07737806
0.08724365
0.09800099
0.10967818
0.12229718
0.13587294
0.15041266
0.16591516
0.18237026
0.19975843
0.21805046
0.23720738
0.25718049
0.27791163
0.29933356
0.32137064
0.34393952
0.36695016
0.39030684
0.41390942
0.43765463
0.46143739
0.48515228
0.50869493
0.53196339
0.55485948
0.57729003
0.59916801
0.62041353
0.64095472
0.66072834
0.67968035
0.69776619
0.71495094
0.73120929
0.74652531
0.76089215
0.77431151
0.78679305
0.79835370
0.80901690
0.81881176
0.82777220
0.83593613
0.84334456
0.85004080
0.85606971
0.86147690
0.86630816
0.87060882
0.87442325
0.87779444
0.88076364
0.88337007
0.88565072
0.88764018
0.88937059
0.89087155
0.89217014
0.89329093
0.89425606
0.89508522
0.89579583
0.89640374
0.89692509
0.89737507
0.89774920
0.89797870
0.89793626
0.89757538
0.89553137
0.87385744
0.73274850
0.51090150
0.33302236
0.21238957
0.13447828
0.08493503
0.05359191
0.03379911
0.02130945
0.01343124
0.00846319
0.00533110
0.00335699
0.00211310
0.00132957
0.00083618
0.00052563
0.00033023
0.00020735
0.00013011
0.00008158
0.00005112
0.00003201
0.00002002
0.00001251
0.00000781
0.00000487
0.00000304
0.00000189
0.00000117
0.00000073
0.00000045
0.00000028
0.00000017
0.00000011
0.00000007
0.00000004
0.00000002
0.00000002
0.00000001
0.00000001
0.00000000
0.00000000
0.00000000
0.00000000
0.00000000
0.00000000
0.00000000
0.00000000
0.00000000
0.00000000
0.00000000
0.00000000
0.00000000
0.00000000
0.00000000
0.00000000
0.00000000
0.00000000
0.00000000
0.00000000
0.00000000
0.00000000
0.00000000
0.00000000
0.00000000
0.00000000
0.00000000
0.00000000
0.00000000
0.00000000
0.00000000
0.00000000
0.00000000
0.00000000
0.00000000
0.00000000
0.00000000
0.00000000
0.00000000
0.00000000
0.00000000
0.00000000
0.00000000
0.00000000
0.00000000
0.00000000
0.00000000
0.00000000
0.00000000
0.00000000
0.00000000
0.00000000
0.00000000
0.00000000
0.00000000
0.00000000
0.00000000
0.00000000
0.00000000
0.00000000
0.00000000
0.00000000
0.00000000
0.00000000
0.00000000
0.00000000
0.00000000
0.00000000
0.00000000
0.00000000
0.00000000
0.00000000
0.00000000
0.00000000
0.00000000
0.00000000
0.00000000
0.00000000
0.00000000
0.00000000
0.00000000
0.00000000
0.00000000
0.00000000
0.00000000
0.00000000
0.00000000
0.00000000
0.00000000
0.00000000
0.00000000
0.00000000
0.00000000
0.00000000
0.00000000
0.00000000
0.00000000
0.00000000
0.00000000
0.00000000
0.00000000
0.00000000
0.00000000
0.00000000
0.00000000
0.00000000
0.00000000
0.00000000
0.00000000
0.00000000
0.00000000
0.00000000
0.00000000
0.00000000
0.00000000
0.00000000
0.00000000
0.00000000
0.00000000
0.00000000
0.00000000
0.00000000
0.00000000
0.00000000
0.00000000
0.00000000
0.00000000
0.00000000
0.00000000
0.00000000
0.00000000
0.00000000
0.00000000
0.00000000
0.00000000
0.00000000
0.00000000
0.00000000
0.00000000
0.00000000
0.00000000
0.00000000
0.00000000
0.00000000
0.00000000
0.00000000
0.00000000
0.00000000
0.00000000
0.00000000
0.00000000
0.00000000
0.00000000
0.00000000
0.00000000
0.00000000
0.00000000
0.00000000
0.00000000
0.00000000
0.00000000
0.00000000
0.00000000
0.00000000
0.00000000
0.00000000
0.00000000
0.00000000
0.00000000
0.00000000
0.00000000
0.00000000
0.00000000
0.00000000
0.00000000
0.00000000
0.00000000
0.00000000
0.00000000
0.00000000
0.00000000
0.00000000
0.00000000
0.00000000
0.00000000
0.00000000
0.00000000
0.00000000
0.00000000
0.00000000
0.00000000
0.00000000
0.00000000
0.00000000
0.00000000
0.00000000
0.00000000
0.00000000
0.00000000
0.00000000
0.00000000
0.00000000
0.00000000
0.00000000
0.00000000
0.00000000
0.00000000
0.00000000
0.00000000
0.00000000
0.00000000
0.00000000
0.00000000
0.00000000
0.00000000
0.00000000
0.00000000
0.00000000
0.00000000
0.00000000
0.00000001
0.00000001
0.00000001
0.00000002
0.00000003
0.00000004
0.00000005
0.00000008
0.00000011
0.00000015
0.00000022
0.00000031
0.00000043
0.00000060
0.00000084
0.00000116
0.00000160
0.00000221
0.00000302
0.00000413
0.00000561
0.00000759
0.00001023
0.00001373
0.00001835
0.00002442
0.00003237
0.00004272
0.00005615
0.00007350
0.00009580
0.00012435
0.00016074
0.00020691
0.00026524
0.00033861
0.00043049
0.00054502
0.00068717
0.00086283
0.00107893
0.00134359
0.00166629
0.00205803
0.00253146
0.00310106
0.00378334
0.00459694
0.00556284
0.00670442
0.00804764
0.00962107
0.01145594
0.01358617
0.01604825
0.01888118
0.02212627
0.02582688
0.03002809
0.03477631
0.04011877
0.04610297
0.05277600
0.06018389
0.06837076
0.07737806
0.08724365
0.09800099
0.10967818
0.12229718
0.13587294
0.15041266
0.16591515
0.18237025
0.19975842
0.21805045
0.23720737
0.25718048
0.27791161
0.29933355
0.32137062
0.34393950
0.36695013
0.39030681
0.41390939
0.43765459
0.46143735
0.48515224
0.50869488
0.53196334
0.55485942
0.57728996
0.59916793
0.62041345
0.64095463
0.66072825
0.67968025
0.69776608
0.71495083
0.73120917
0.74652518
0.76089201
0.77431136
0.78679289
0.79835354
0.80901673
0.81881158
0.82777202
0.83593594
0.84334436
0.85004061
0.85606952
0.86147672
0.86630799
0.87060866
0.87442311
0.87779433
0.88076356
0.88337003
0.88565073
0.88764025
0.88937073
0.89087177
0.89217046
0.89329138
0.89425668
0.89508604
0.89579683
0.89640483
0.89692604
0.89737542
0.89774820
0.89797507
0.89792712
0.89755510
0.89549032
0.87385975
0.73273421
0.51089177
0.33301201
0.21238518
0.13447753
0.08493475
0.05359168
0.03379894
0.02130934
0.01343118
0.00846316
0.00533108
0.00335698
0.00211310
0.00132956
0.00083618
0.00052563
0.00033023
0.00020735
0.00013011
0.00008158
0.00005112
0.00003201
0.00002002
0.00001251
0.00000781
0.00000487
0.00000304
0.00000189
0.00000117
0.00000073
0.00000045
0.00000028
0.00000017
0.00000011
0.00000007
0.00000004
0.00000002
0.00000002
0.00000001
0.00000001
0.00000000
0.00000000
0.00000000
0.00000000
0.00000000
0.00000000
0.00000000
0.00000000
0.00000000
0.00000000
0.00000000
0.00000000
0.00000000
0.00000000
0.00000000
0.00000000
0.00000000
0.00000000
0.00000000
0.00000000
0.00000000
0.00000000
0.00000000
0.00000000
0.00000000
0.00000000
0.00000000
0.00000000
0.00000000
0.00000000
0.00000000
0.00000000
0.00000000
0.00000000
0.00000000
0.00000000
0.00000000
0.00000000
0.00000000
0.00000000
0.00000000
0.00000000
0.00000000
0.00000000
0.00000000
0.00000000
0.00000000
0.00000000
0.00000000
0.00000000
0.00000000
0.00000000
0.00000000
0.00000000
0.00000000
0.00000000
0.00000000
0.00000000
0.00000000
0.00000000
0.00000000
0.00000000
0.00000000
0.00000000
0.00000000
0.00000000
0.00000000
0.00000000
0.00000000
0.00000000
0.00000000
0.00000000
0.00000000
0.00000000
0.00000000
0.00000000
0.00000000
0.00000000
0.00000000
0.00000000
0.00000000
0.00000000
0.00000000
0.00000000
0.00000000
0.00000000
0.00000000
0.00000000
0.00000000
0.00000000
0.00000000
0.00000000
0.00000000
0.00000000
0.00000000
0.00000000
0.00000000
0.00000000
0.00000000
0.00000000
0.00000000
0.00000000
0.00000000
0.00000000
0.00000000
0.00000000
0.00000000
0.00000000
0.00000000
0.00000000
0.00000000
0.00000000
0.00000000
0.00000000
0.00000000
0.00000000
0.00000000
0.00000000
0.00000000
0.00000000
0.00000000
0.00000000
0.00000000
0.00000000
0.00000000
0.00000000
0.00000000
0.00000000
0.00000000
0.00000000
0.00000000
0.00000000
0.00000000
0.00000000
0.00000000
0.00000000
0.00000000
0.00000000
0.00000000
0.00000000
0.00000000
0.00000000
0.00000000
0.00000000
0.00000000
0.00000000
0.00000000
0.00000000
0.00000000
0.00000000
0.00000000
0.00000000
0.00000000
0.00000000
0.00000000
0.00000000
0.00000000
0.00000000
0.00000000
0.00000000
0.00000000
0.00000000
0.00000000
0.00000000
0.00000000
0.00000000
0.00000000
0.00000000
0.00000000
0.00000000
0.00000000
0.00000000
0.00000000
0.00000000
0.00000000
0.00000000
0.00000000
0.00000000
0.00000000
0.00000000
0.00000000
0.00000000
0.00000000
0.00000000
0.00000000
0.00000000
0.00000000
0.00000000
0.00000000
0.00000000
0.00000000
0.00000000
0.00000000
0.00000000
0.00000000
0.00000000
0.00000000
0.00000000
0.00000000
0.00000000
0.00000000
0.00000000
0.00000000
0.00000000
0.00000000
0.00000000
0.00000000
0.00000000
0.00000000
0.00000000
0.00000000
0.00000000
0.00000000
0.00000000
0.00000000
0.00000000
0.00000000
0.00000000
0.00000000
0.00000000
0.00000001
0.00000001
0.00000001
0.00000002
0.00000003
0.00000004
0.00000005
0.00000008
0.00000011
0.00000015
0.00000022
0.00000031
0.00000043
0.00000060
0.00000084
0.00000116
0.00000160
0.00000221
0.00000302
0.00000413
0.00000561
0.00000759
0.00001023
0.00001373
0.00001835
0.00002442
0.00003237
0.00004272
0.00005615
0.00007350
0.00009580
0.00012435
0.00016074
0.00020691
0.00026524
0.00033861
0.00043049
0.00054502
0.00068718
0.00086283
0.00107893
0.00134359
0.00166629
0.00205803
0.00253146
0.00310106
0.00378334
0.00459694
0.00556284
0.00670442
0.00804764
0.00962107
0.01145594
0.01358617
0.01604825
0.01888119
0.02212627
0.02582688
0.03002809
0.03477631
0.04011877
0.04610297
0.05277600
0.06018389
0.06837076
0.07737806
0.08724365
0.09800099
0.10967818
0.12229718
0.13587294
0.15041266
0.16591515
0.18237025
0.19975841
0.21805044
0.23720736
0.25718047
0.27791159
0.29933353
0.32137059
0.34393947
0.36695010
0.39030678
0.41390935
0.43765455
0.46143730
0.48515218
0.50869482
0.53196327
0.55485934
0.57728987
0.59916784
0.62041335
0.64095452
0.66072813
0.67968012
0.69776594
0.71495068
0.73120900
0.74652501
0.76089183
0.77431117
0.78679269
0.79835332
0.80901651
0.81881135
0.82777177
0.83593569
0.84334411
0.85004035
0.85606926
0.86147647
0.86630776
0.87060845
0.87442293
0.87779419
0.88076347
0.88336999
0.88565074
0.88764034
0.88937089
0.89087203
0.89217083
0.89329191
0.89425739
0.89508697
0.89579800
0.89640621
0.89692750
0.89737668
0.89774873
0.89797392
0.89792339
0.89754959
0.89547658
0.87383566
0.73283782
0.51094274
0.33302522
0.21238767
0.13447763
0.08493422
0.05359121
0.03379864
0.02130917
0.01343108
0.00846311
0.00533105
0.00335697
0.00211309
0.00132956
0.00083618
0.00052563
0.00033023
0.00020735
0.00013011
0.00008159
0.00005112
0.00003201
0.00002002
0.00001251
0.00000781
0.00000487
0.00000304
0.00000189
0.00000117
0.00000073
0.00000045
0.00000028
0.00000017
0.00000011
0.00000007
0.00000004
0.00000002
0.00000002
0.00000001
0.00000001
0.00000000
0.00000000
0.00000000
0.00000000
0.00000000
0.00000000
0.00000000
0.00000000
0.00000000
0.00000000
0.00000000
0.00000000
0.00000000
0.00000000
0.00000000
0.00000000
0.00000000
0.00000000
0.00000000
0.00000000
0.00000000
0.00000000
0.00000000
0.00000000
0.00000000
0.00000000
0.00000000
0.00000000
0.00000000
0.00000000
0.00000000
0.00000000
0.00000000
0.00000000
0.00000000
0.00000000
0.00000000
0.00000000
0.00000000
0.00000000
0.00000000
0.00000000
0.00000000
0.00000000
0.00000000
0.00000000
0.00000000
0.00000000
0.00000000
0.00000000
0.00000000
0.00000000
0.00000000
0.00000000
0.00000000
0.00000000
0.00000000
0.00000000
0.00000000
0.00000000
0.00000000
0.00000000
0.00000000
0.00000000
0.00000000
0.00000000
0.00000000
0.00000000
0.00000000
0.00000000
0.00000000
0.00000000
0.00000000
0.00000000
0.00000000
0.00000000
0.00000000
0.00000000
0.00000000
0.00000000
0.00000000
0.00000000
0.00000000
0.00000000
0.00000000
0.00000000
0.00000000
0.00000000
0.00000000
0.00000000
0.00000000
0.00000000
0.00000000
0.00000000
0.00000000
0.00000000
0.00000000
0.00000000
0.00000000
0.00000000
0.00000000
0.00000000
0.00000000
0.00000000
0.00000000
0.00000000
0.00000000
0.00000000
0.00000000
0.00000000
0.00000000
0.00000000
0.00000000
0.00000000
0.00000000
0.00000000
0.00000000
0.00000000
0.00000000
0.00000000
0.00000000
0.00000000
0.00000000
0.00000000
0.00000000
0.00000000
0.00000000
0.00000000
0.00000000
0.00000000
0.00000000
0.00000000
0.00000000
0.00000000
0.00000000
0.00000000
0.00000000
0.00000000
0.00000000
0.00000000
0.00000000
0.00000000
0.00000000
0.00000000
0.00000000
0.00000000
0.00000000
0.00000000
0.00000000
0.00000000
0.00000000
0.00000000
0.00000000
0.00000000
0.00000000
0.00000000
0.00000000
0.00000000
0.00000000
0.00000000
0.00000000
0.00000000
0.00000000
0.00000000
0.00000000
0.00000000
0.00000000
0.00000000
0.00000000
0.00000000
0.00000000
0.00000000
0.00000000
0.00000000
0.00000000
0.00000000
0.00000000
0.00000000
0.00000000
0.00000000
0.00000000
0.00000000
0.00000000
0.00000000
0.00000000
0.00000000
0.00000000
0.00000000
0.00000000
0.00000000
0.00000000
0.00000000
0.00000000
0.00000000
0.00000000
0.00000000
0.00000000
0.00000000
0.00000000
0.00000000
0.00000000
0.00000000
0.00000000
0.00000000
0.00000000
0.00000000
0.00000000
0.00000000
0.00000000
0.00000000
0.00000000
0.00000000
0.00000000
0.00000000
0.00000000
0.00000000
0.00000000
0.00000000
0.00000000
0.00000000
0.00000001
0.00000001
0.00000001
0.00000002
0.00000003
0.00000004
0.00000005
0.00000008
0.00000011
0.00000015
0.00000022
0.00000031
0.00000043
0.00000060
0.00000084
0.00000116
0.00000160
0.00000221
0.00000302
0.00000413
0.00000561
0.00000759
0.00001023
0.00001373
0.00001835
0.00002442
0.00003237
0.00004272
0.00005615
0.00007350
0.00009580
0.00012435
0.00016074
0.00020691
0.00026524
0.00033861
0.00043049
0.00054502
0.00068718
0.00086283
0.00107893
0.00134359
0.00166629
0.00205803
0.00253146
0.00310106
0.00378334
0.00459694
0.00556284
0.00670442
0.00804764
0.00962107
0.01145595
0.01358617
0.01604825
0.01888119
0.02212628
0.02582688
0.03002809
0.03477631
0.04011878
0.04610297
0.05277601
0.06018389
0.06837076
0.07737806
0.08724365
0.09800099
0.10967818
0.12229718
0.13587293
0.15041265
0.16591514
0.18237024
0.19975840
0.21805043
0.23720735
0.25718045
0.27791157
0.29933350
0.32137057
0.34393944
0.36695006
0.39030673
0.41390931
0.43765449
0.46143724
0.48515211
0.50869474
0.53196318
0.55485925
0.57728977
0.59916772
0.62041323
0.64095438
0.66072798
0.67967996
0.69776577
0.71495049
0.73120880
0.74652480
0.76089160
0.77431093
0.78679243
0.79835306
0.80901623
0.81881106
0.82777147
0.83593538
0.84334379
0.85004004
0.85606895
0.86147616
0.86630746
0.87060818
0.87442270
0.87779400
0.88076334
0.88336993
0.88565076
0.88764043
0.88937108
0.89087231
0.89217124
0.89329246
0.89425812
0.89508792
0.89579923
0.89640778
0.89692947
0.89737910
0.89775168
0.89797760
0.89792855
0.89755674
0.89547937
0.87380068
0.73273627
0.51090070
0.33302742
0.21238768
0.13447637
0.08493291
0.05359039
0.03379817
0.02130892
0.01343095
0.00846304
0.00533102
0.00335695
0.00211308
0.00132956
0.00083618
0.00052563
0.00033023
0.00020735
0.00013011
0.00008159
0.00005112
0.00003201
0.00002002
0.00001251
0.00000781
0.00000487
0.00000304
0.00000189
0.00000117
0.00000073
0.00000045
0.00000028
0.00000017
0.00000011
0.00000007
0.00000004
0.00000002
0.00000002
0.00000001
0.00000001
0.00000000
0.00000000
0.00000000
0.00000000
0.00000000
0.00000000
0.00000000
0.00000000
0.00000000
0.00000000
0.00000000
0.00000000
0.00000000
0.00000000
0.00000000
0.00000000
0.00000000
0.00000000
0.00000000
0.00000000
0.00000000
0.00000000
0.00000000
0.00000000
0.00000000
0.00000000
0.00000000
0.00000000
0.00000000
0.00000000
0.00000000
0.00000000
0.00000000
0.00000000
0.00000000
0.00000000
0.00000000
0.00000000
0.00000000
0.00000000
0.00000000
0.00000000
0.00000000
0.00000000
0.00000000
0.00000000
0.00000000
0.00000000
0.00000000
0.00000000
0.00000000
0.00000000
0.00000000
0.00000000
0.00000000
0.00000000
0.00000000
0.00000000
0.00000000
0.00000000
0.00000000
0.00000000
0.00000000
0.00000000
0.00000000
0.00000000
0.00000000
0.00000000
0.00000000
0.00000000
0.00000000
0.00000000
0.00000000
0.00000000
0.00000000
0.00000000
0.00000000
0.00000000
0.00000000
0.00000000
0.00000000
0.00000000
0.00000000
0.00000000
0.00000000
0.00000000
0.00000000
0.00000000
0.00000000
0.00000000
0.00000000
0.00000000
0.00000000
0.00000000
0.00000000
0.00000000
0.00000000
0.00000000
0.00000000
0.00000000
0.00000000
0.00000000
0.00000000
0.00000000
0.00000000
0.00000000
0.00000000
0.00000000
0.00000000
0.00000000
0.00000000
0.00000000
0.00000000
0.00000000
0.00000000
0.00000000
0.00000000
0.00000000
0.00000000
0.00000000
0.00000000
0.00000000
0.00000000
0.00000000
0.00000000
0.00000000
0.00000000
0.00000000
0.00000000
0.00000000
0.00000000
0.00000000
0.00000000
0.00000000
0.00000000
0.00000000
0.00000000
0.00000000
0.00000000
0.00000000
0.00000000
0.00000000
0.00000000
0.00000000
0.00000000
0.00000000
0.00000000
0.00000000
0.00000000
0.00000000
0.00000000
0.00000000
0.00000000
0.00000000
0.00000000
0.00000000
0.00000000
0.00000000
0.00000000
0.00000000
0.00000000
0.00000000
0.00000000
0.00000000
0.00000000
0.00000000
0.00000000
0.00000000
0.00000000
0.00000000
0.00000000
0.00000000
0.00000000
0.00000000
0.00000000
0.00000000
0.00000000
0.00000000
0.00000000
0.00000000
0.00000000
0.00000000
0.00000000
0.00000000
0.00000000
0.00000000
0.00000000
0.00000000
0.00000000
0.00000000
0.00000000
0.00000000
0.00000000
0.00000000
0.00000000
0.00000000
0.00000000
0.00000000
0.00000000
0.00000000
0.00000000
0.00000000
0.00000000
0.00000000
0.00000000
0.00000000
0.00000000
0.00000000
0.00000000
0.00000000
0.00000000
0.00000000
0.00000000
0.00000000
0.00000000
0.00000000
0.00000000
0.00000000
0.00000000
0.00000000
0.00000001
0.00000001
0.00000001
0.00000002
0.00000003
0.00000004
0.00000005
0.00000008
0.00000011
0.00000015
0.00000022
0.00000031
0.00000043
0.00000060
0.00000084
0.00000116
0.00000160
0.00000221
0.00000302
0.00000413
0.00000561
0.00000759
0.00001023
0.00001373
0.00001835
0.00002442
0.00003237
0.00004272
0.00005615
0.00007350
0.00009580
0.00012435
0.00016074
0.00020691
0.00026525
0.00033861
0.00043049
0.00054502
0.00068718
0.00086283
0.00107893
0.00134359
0.00166629
0.00205803
0.00253146
0.00310106
0.00378334
0.00459694
0.00556284
0.00670442
0.00804764
0.00962107
0.01145595
0.01358617
0.01604826
0.01888119
0.02212628
0.02582689
0.03002810
0.03477632
0.04011878
0.04610297
0.05277601
0.06018389
0.06837077
0.07737806
0.08724365
0.09800099
0.10967818
0.12229718
0.13587293
0.15041265
0.16591513
0.18237023
0.19975839
0.21805042
0.23720733
0.25718043
0.27791155
0.29933347
0.32137054
0.34393940
0.36695002
0.39030669
0.41390925
0.43765443
0.46143717
0.48515204
0.50869466
0.53196309
0.55485914
0.57728965
0.59916759
0.62041308
0.64095423
0.66072781
0.67967977
0.69776557
0.71495027
0.73120857
0.74652455
0.76089134
0.77431065
0.78679214
0.79835274
0.80901590
0.81881071
0.82777111
0.83593501
0.84334342
0.85003966
0.85606857
0.86147579
0.86630712
0.87060787
0.87442242
0.87779378
0.88076318
0.88336984
0.88565075
0.88764052
0.88937126
0.89087260
0.89217163
0.89329297
0.89425878
0.89508878
0.89580038
0.89640937
0.89693175
0.89738246
0.89775678
0.89798555
0.89794127
0.89757946
0.89550865
0.87377675
0.73272186
0.51092882
0.33302026
0.21238197
0.13447245
0.08493087
0.05358925
0.03379758
0.02130861
0.01343080
0.00846297
0.00533099
0.00335694
0.00211308
0.00132956
0.00083618
0.00052563
0.00033023
0.00020735
0.00013011
0.00008159
0.00005112
0.00003201
0.00002002
0.00001251
0.00000781
0.00000487
0.00000304
0.00000189
0.00000117
0.00000073
0.00000045
0.00000028
0.00000017
0.00000011
0.00000007
0.00000004
0.00000002
0.00000002
0.00000001
0.00000001
0.00000000
0.00000000
0.00000000
0.00000000
0.00000000
0.00000000
0.00000000
0.00000000
0.00000000
0.00000000
0.00000000
0.00000000
0.00000000
0.00000000
0.00000000
0.00000000
0.00000000
0.00000000
0.00000000
0.00000000
0.00000000
0.00000000
0.00000000
0.00000000
0.00000000
0.00000000
0.00000000
0.00000000
0.00000000
0.00000000
0.00000000
0.00000000
0.00000000
0.00000000
0.00000000
0.00000000
0.00000000
0.00000000
0.00000000
0.00000000
0.00000000
0.00000000
0.00000000
0.00000000
0.00000000
0.00000000
0.00000000
0.00000000
0.00000000
0.00000000
0.00000000
0.00000000
0.00000000
0.00000000
0.00000000
0.00000000
0.00000000
0.00000000
0.00000000
0.00000000
0.00000000
0.00000000
0.00000000
0.00000000
0.00000000
0.00000000
0.00000000
0.00000000
0.00000000
0.00000000
0.00000000
0.00000000
0.00000000
0.00000000
0.00000000
0.00000000
0.00000000
0.00000000
0.00000000
0.00000000
0.00000000
0.00000000
0.00000000
0.00000000
0.00000000
0.00000000
0.00000000
0.00000000
0.00000000
0.00000000
0.00000000
0.00000000
0.00000000
0.00000000
0.00000000
0.00000000
0.00000000
0.00000000
0.00000000
0.00000000
0.00000000
0.00000000
0.00000000
0.00000000
0.00000000
0.00000000
0.00000000
0.00000000
0.00000000
0.00000000
0.00000000
0.00000000
0.00000000
0.00000000
0.00000000
0.00000000
0.00000000
0.00000000
0.00000000
0.00000000
0.00000000
0.00000000
0.00000000
0.00000000
0.00000000
0.00000000
0.00000000