# vtk DataFile Version 3.0
Concentration output
ASCII
DATASET STRUCTURED_POINTS
DIMENSIONS 398 98 1
ORIGIN 0 0 0
SPACING 0.03 0.03 1.0
POINT_DATA 39004
SCALARS Variable float 1
LOOKUP_TABLE default
0.00007326
0.00007505
0.00007868
0.00008420
0.00009172
0.00010138
0.00011335
0.00012785
0.00014514
0.00016551
0.00018933
0.00021699
0.00024895
0.00028573
0.00032792
0.00037618
0.00043124
0.00049392
0.00056513
0.00064588
0.00073729
0.00084059
0.00095712
0.00108838
0.00123599
0.00140173
0.00158755
0.00179555
0.00202804
0.00228750
0.00257663
0.00289833
0.00325575
0.00365224
0.00409142
0.00457717
0.00511362
0.00570518
0.00635652
0.00707263
0.00785877
0.00872050
0.00966367
0.01069445
0.01181929
0.01304493
0.01437842
0.01582709
0.01739853
0.01910060
0.02094141
0.02292929
0.02507279
0.02738063
0.02986172
0.03252507
0.03537980
0.03843509
0.04170014
0.04518416
0.04889628
0.05284551
0.05704073
0.06149060
0.06620354
0.07118764
0.07645064
0.08199983
0.08784205
0.09398358
0.10043012
0.10718671
0.11425769
0.12164665
0.12935634
0.13738870
0.14574472
0.15442448
0.16342707
0.17275055
0.18239197
0.19234727
0.20261135
0.21317801
0.22403993
0.23518871
0.24661488
0.25830786
0.27025606
0.28244685
0.29486663
0.30750083
0.32033403
0.33334993
0.34653150
0.35986095
0.37331990
0.38688938
0.40054995
0.41428176
0.42806467
0.44187831
0.45570216
0.46951570
0.48329842
0.49703000
0.51069030
0.52425956
0.53771838
0.55104788
0.56422975
0.57724630
0.59008060
0.60271647
0.61513857
0.62733248
0.63928470
0.65098273
0.66241507
0.67357129
0.68444200
0.69501891
0.70529482
0.71526360
0.72492022
0.73426072
0.74328219
0.75198274
0.76036151
0.76841857
0.77615495
0.78357257
0.79067417
0.79746331
0.80394428
0.81012207
0.81600230
0.82159120
0.82689549
0.83192237
0.83667948
0.84117479
0.84541660
0.84941343
0.85317402
0.85670728
0.86002218
0.86312779
0.86603316
0.86874734
0.87127932
0.87363797
0.87583207
0.87787021
0.87976082
0.88151211
0.88313210
0.88462853
0.88600890
0.88728046
0.88845016
0.88952470
0.89051045
0.89141351
0.89223972
0.89299457
0.89368331
0.89431089
0.89488197
0.89540095
0.89587198
0.89629891
0.89668538
0.89703476
0.89735023
0.89763469
0.89789089
0.89812135
0.89832838
0.89851416
0.89868066
0.89882970
0.89896297
0.89908198
0.89918816
0.89928277
0.89936699
0.89944188
0.89950840
0.89956744
0.89961977
0.89966613
0.89970715
0.89974342
0.89977547
0.89980376
0.89982872
0.89985074
0.89987014
0.89988723
0.89990229
0.89991555
0.89992724
0.89993754
0.89994663
0.89995465
0.89996175
0.89996804
0.89997364
0.89997864
0.89998312
0.89998717
0.89999084
0.89999421
0.89999732
0.90000023
0.90000298
0.90000561
0.90000815
0.90001064
0.90001310
0.90001557
0.90001805
0.90002057
0.90002315
0.90002580
0.90002855
0.90003139
0.90003434
0.90003741
0.90004062
0.90004396
0.90004745
0.90005109
0.90005490
0.90005888
0.90006304
0.90006740
0.90007198
0.90007681
0.90008192
0.90008736
0.90009322
0.90009959
0.90010661
0.90011449
0.90012335
0.90013300
0.90014274
0.90015341
0.90017325
0.90021232
0.90020267
0.89976793
0.89793441
0.89203913
0.86281804
0.68360151
0.46603029
0.30179546
0.19224112
0.12178667
0.07700990
0.04866492
0.03074612
0.01942366
0.01227042
0.00775144
0.00489669
0.00309329
0.00195406
0.00123439
0.00077977
0.00049259
0.00031117
0.00019657
0.00012417
0.00007844
0.00004955
0.00003130
0.00001977
0.00001249
0.00000789
0.00000498
0.00000315
0.00000199
0.00000126
0.00000079
0.00000050
0.00000032
0.00000020
0.00000013
0.00000008
0.00000005
0.00000003
0.00000002
0.00000001
0.00000001
0.00000001
0.00000000
0.00000000
0.00000000
0.00000000
0.00000000
0.00000000
0.00000000
0.00000000
0.00000000
0.00000000
0.00000000
0.00000000
0.00000000
0.00000000
0.00000000
0.00000000
0.00000000
0.00000000
0.00000000
0.00000000
0.00000000
0.00000000
0.00000000
0.00000000
0.00000000
0.00000000
0.00000000
0.00000000
0.00000000
0.00000000
0.00000000
0.00000000
0.00000000
0.00000000
0.00000000
0.00000000
0.00000000
0.00000000
0.00000000
0.00000000
0.00000000
0.00000000
0.00000000
0.00000000
0.00000000
0.00000000
0.00000000
0.00000000
0.00000000
0.00000000
0.00000000
0.00000000
0.00000000
0.00000000
0.00000000
0.00000000
0.00000000
0.00000000
0.00000000
0.00000000
0.00000000
0.00000000
0.00000000
0.00000000
0.00000000
0.00000000
0.00000000
0.00000000
0.00000000
0.00000000
0.00000000
0.00000000
0.00000000
0.00000000
0.00000000
0.00000000
0.00000000
0.00000000
0.00000000
0.00000000
0.00000000
0.00000000
0.00000000
0.00000000
0.00000000
0.00000000
0.00000000
0.00000000
0.00000000
0.00000000
0.00000000
0.00000000
0.00000000
0.00000000
0.00000000
0.00000000
0.00000000
0.00000000
0.00000000
0.00007326
0.00007505
0.00007868
0.00008420
0.00009172
0.00010138
0.00011335
0.00012785
0.00014514
0.00016551
0.00018933
0.00021699
0.00024895
0.00028573
0.00032792
0.00037618
0.00043124
0.00049392
0.00056513
0.00064588
0.00073729
0.00084059
0.00095712
0.00108838
0.00123599
0.00140173
0.00158755
0.00179555
0.00202804
0.00228750
0.00257663
0.00289833
0.00325575
0.00365224
0.00409142
0.00457717
0.00511362
0.00570518
0.00635652
0.00707263
0.00785877
0.00872050
0.00966367
0.01069445
0.01181929
0.01304493
0.01437842
0.01582709
0.01739853
0.01910060
0.02094141
0.02292929
0.02507279
0.02738063
0.02986172
0.03252507
0.03537980
0.03843509
0.04170014
0.04518416
0.04889628
0.05284551
0.05704073
0.06149060
0.06620354
0.07118764
0.07645064
0.08199983
0.08784205
0.09398358
0.10043012
0.10718671
0.11425769
0.12164665
0.12935634
0.13738870
0.14574472
0.15442448
0.16342707
0.17275055
0.18239197
0.19234727
0.20261135
0.21317801
0.22403993
0.23518871
0.24661488
0.25830786
0.27025606
0.28244685
0.29486663
0.30750083
0.32033403
0.33334993
0.34653150
0.35986095
0.37331990
0.38688938
0.40054995
0.41428176
0.42806467
0.44187830
0.45570216
0.46951570
0.48329842
0.49702999
0.51069030
0.52425956
0.53771838
0.55104788
0.56422974
0.57724630
0.59008060
0.60271647
0.61513857
0.62733248
0.63928470
0.65098273
0.66241507
0.67357128
0.68444200
0.69501891
0.70529482
0.71526360
0.72492022
0.73426072
0.74328219
0.75198274
0.76036150
0.76841856
0.77615495
0.78357256
0.79067416
0.79746330
0.80394427
0.81012206
0.81600230
0.82159119
0.82689548
0.83192237
0.83667948
0.84117479
0.84541659
0.84941342
0.85317402
0.85670727
0.86002218
0.86312778
0.86603315
0.86874733
0.87127931
0.87363797
0.87583206
0.87787020
0.87976081
0.88151211
0.88313209
0.88462852
0.88600889
0.88728045
0.88845016
0.88952469
0.89051044
0.89141350
0.89223971
0.89299456
0.89368330
0.89431087
0.89488196
0.89540094
0.89587196
0.89629889
0.89668536
0.89703475
0.89735021
0.89763468
0.89789088
0.89812133
0.89832836
0.89851414
0.89868064
0.89882968
0.89896294
0.89908196
0.89918813
0.89928274
0.89936696
0.89944185
0.89950837
0.89956740
0.89961973
0.89966609
0.89970711
0.89974338
0.89977542
0.89980371
0.89982867
0.89985068
0.89987008
0.89988717
0.89990222
0.89991548
0.89992716
0.89993745
0.89994653
0.89995455
0.89996164
0.89996792
0.89997351
0.89997849
0.89998296
0.89998699
0.89999064
0.89999399
0.89999708
0.89999997
0.90000269
0.90000529
0.90000780
0.90001026
0.90001268
0.90001510
0.90001753
0.90002000
0.90002252
0.90002512
0.90002779
0.90003056
0.90003343
0.90003642
0.90003953
0.90004277
0.90004615
0.90004968
0.90005335
0.90005719
0.90006120
0.90006539
0.90006979
0.90007440
0.90007926
0.90008443
0.90008996
0.90009594
0.90010251
0.90010981
0.90011798
0.90012676
0.90013542
0.90014479
0.90016312
0.90020056
0.90018925
0.89975324
0.89791976
0.89203299
0.86281143
0.68351674
0.46600505
0.30181602
0.19225373
0.12179409
0.07701399
0.04866735
0.03074758
0.01942453
0.01227093
0.00775174
0.00489686
0.00309339
0.00195412
0.00123443
0.00077979
0.00049260
0.00031118
0.00019657
0.00012417
0.00007844
0.00004955
0.00003130
0.00001977
0.00001249
0.00000789
0.00000498
0.00000315
0.00000199
0.00000126
0.00000079
0.00000050
0.00000032
0.00000020
0.00000013
0.00000008
0.00000005
0.00000003
0.00000002
0.00000001
0.00000001
0.00000001
0.00000000
0.00000000
0.00000000
0.00000000
0.00000000
0.00000000
0.00000000
0.00000000
0.00000000
0.00000000
0.00000000
0.00000000
0.00000000
0.00000000
0.00000000
0.00000000
0.00000000
0.00000000
0.00000000
0.00000000
0.00000000
0.00000000
0.00000000
0.00000000
0.00000000
0.00000000
0.00000000
0.00000000
0.00000000
0.00000000
0.00000000
0.00000000
0.00000000
0.00000000
0.00000000
0.00000000
0.00000000
0.00000000
0.00000000
0.00000000
0.00000000
0.00000000
0.00000000
0.00000000
0.00000000
0.00000000
0.00000000
0.00000000
0.00000000
0.00000000
0.00000000
0.00000000
0.00000000
0.00000000
0.00000000
0.00000000
0.00000000
0.00000000
0.00000000
0.00000000
0.00000000
0.00000000
0.00000000
0.00000000
0.00000000
0.00000000
0.00000000
0.00000000
0.00000000
0.00000000
0.00000000
0.00000000
0.00000000
0.00000000
0.00000000
0.00000000
0.00000000
0.00000000
0.00000000
0.00000000
0.00000000
0.00000000
0.00000000
0.00000000
0.00000000
0.00000000
0.00000000
0.00000000
0.00000000
0.00000000
0.00000000
0.00000000
0.00000000
0.00000000
0.00000000
0.00000000
0.00000000
0.00000000
0.00000000
0.00007326
0.00007505
0.00007868
0.00008420
0.00009172
0.00010138
0.00011335
0.00012785
0.00014514
0.00016551
0.00018933
0.00021699
0.00024895
0.00028573
0.00032792
0.00037618
0.00043124
0.00049392
0.00056513
0.00064588
0.00073729
0.00084059
0.00095712
0.00108838
0.00123599
0.00140173
0.00158755
0.00179555
0.00202804
0.00228750
0.00257663
0.00289833
0.00325575
0.00365224
0.00409142
0.00457717
0.00511362
0.00570518
0.00635652
0.00707263
0.00785877
0.00872050
0.00966367
0.01069445
0.01181929
0.01304493
0.01437842
0.01582709
0.01739853
0.01910060
0.02094141
0.02292929
0.02507279
0.02738063
0.02986172
0.03252507
0.03537980
0.03843509
0.04170014
0.04518416
0.04889628
0.05284551
0.05704073
0.06149060
0.06620354
0.07118765
0.07645064
0.08199983
0.08784205
0.09398358
0.10043012
0.10718671
0.11425770
0.12164665
0.12935634
0.13738870
0.14574472
0.15442448
0.16342707
0.17275055
0.18239196
0.19234727
0.20261135
0.21317801
0.22403993
0.23518871
0.24661487
0.25830786
0.27025606
0.28244685
0.29486662
0.30750083
0.32033403
0.33334993
0.34653149
0.35986095
0.37331990
0.38688938
0.40054995
0.41428176
0.42806467
0.44187830
0.45570216
0.46951569
0.48329842
0.49702999
0.51069030
0.52425955
0.53771837
0.55104787
0.56422974
0.57724630
0.59008059
0.60271646
0.61513857
0.62733247
0.63928469
0.65098272
0.66241506
0.67357128
0.68444199
0.69501890
0.70529481
0.71526359
0.72492021
0.73426071
0.74328218
0.75198273
0.76036149
0.76841856
0.77615494
0.78357255
0.79067415
0.79746329
0.80394426
0.81012205
0.81600229
0.82159118
0.82689547
0.83192236
0.83667947
0.84117478
0.84541658
0.84941341
0.85317401
0.85670726
0.86002216
0.86312777
0.86603314
0.86874732
0.87127930
0.87363795
0.87583205
0.87787019
0.87976080
0.88151209
0.88313207
0.88462850
0.88600888
0.88728043
0.88845014
0.88952467
0.89051042
0.89141349
0.89223968
0.89299454
0.89368328
0.89431085
0.89488193
0.89540092
0.89587194
0.89629887
0.89668533
0.89703472
0.89735018
0.89763464
0.89789084
0.89812129
0.89832832
0.89851410
0.89868059
0.89882963
0.89896289
0.89908191
0.89918808
0.89928269
0.89936690
0.89944178
0.89950830
0.89956733
0.89961966
0.89966601
0.89970702
0.89974329
0.89977533
0.89980361
0.89982856
0.89985057
0.89986995
0.89988704
0.89990208
0.89991533
0.89992700
0.89993728
0.89994634
0.89995434
0.89996141
0.89996767
0.89997324
0.89997820
0.89998264
0.89998663
0.89999026
0.89999357
0.89999662
0.89999945
0.90000212
0.90000467
0.90000711
0.90000950
0.90001184
0.90001418
0.90001652
0.90001889
0.90002130
0.90002377
0.90002632
0.90002894
0.90003166
0.90003448
0.90003741
0.90004045
0.90004362
0.90004691
0.90005034
0.90005390
0.90005762
0.90006148
0.90006551
0.90006971
0.90007411
0.90007874
0.90008365
0.90008890
0.90009459
0.90010084
0.90010770
0.90011488
0.90012158
0.90012858
0.90014415
0.90017852
0.90016392
0.89972539
0.89789394
0.89198771
0.86279412
0.68366188
0.46608367
0.30185646
0.19227417
0.12180635
0.07702171
0.04867208
0.03075040
0.01942621
0.01227192
0.00775232
0.00489720
0.00309359
0.00195423
0.00123450
0.00077983
0.00049262
0.00031119
0.00019658
0.00012418
0.00007844
0.00004955
0.00003130
0.00001977
0.00001249
0.00000789
0.00000498
0.00000315
0.00000199
0.00000126
0.00000079
0.00000050
0.00000032
0.00000020
0.00000013
0.00000008
0.00000005
0.00000003
0.00000002
0.00000001
0.00000001
0.00000001
0.00000000
0.00000000
0.00000000
0.00000000
0.00000000
0.00000000
0.00000000
0.00000000
0.00000000
0.00000000
0.00000000
0.00000000
0.00000000
0.00000000
0.00000000
0.00000000
0.00000000
0.00000000
0.00000000
0.00000000
0.00000000
0.00000000
0.00000000
0.00000000
0.00000000
0.00000000
0.00000000
0.00000000
0.00000000
0.00000000
0.00000000
0.00000000
0.00000000
0.00000000
0.00000000
0.00000000
0.00000000
0.00000000
0.00000000
0.00000000
0.00000000
0.00000000
0.00000000
0.00000000
0.00000000
0.00000000
0.00000000
0.00000000
0.00000000
0.00000000
0.00000000
0.00000000
0.00000000
0.00000000
0.00000000
0.00000000
0.00000000
0.00000000
0.00000000
0.00000000
0.00000000
0.00000000
0.00000000
0.00000000
0.00000000
0.00000000
0.00000000
0.00000000
0.00000000
0.00000000
0.00000000
0.00000000
0.00000000
0.00000000
0.00000000
0.00000000
0.00000000
0.00000000
0.00000000
0.00000000
0.00000000
0.00000000
0.00000000
0.00000000
0.00000000
0.00000000
0.00000000
0.00000000
0.00000000
0.00000000
0.00000000
0.00000000
0.00000000
0.00000000
0.00000000
0.00000000
0.00000000
0.00000000
0.00000000
0.00007326
0.00007505
0.00007868
0.00008420
0.00009172
0.00010138
0.00011335
0.00012785
0.00014514
0.00016551
0.00018933
0.00021699
0.00024895
0.00028573
0.00032792
0.00037618
0.00043124
0.00049392
0.00056513
0.00064588
0.00073729
0.00084059
0.00095712
0.00108838
0.00123599
0.00140173
0.00158755
0.00179555
0.00202804
0.00228750
0.00257663
0.00289833
0.00325575
0.00365224
0.00409142
0.00457717
0.00511362
0.00570518
0.00635652
0.00707263
0.00785877
0.00872050
0.00966367
0.01069445
0.01181929
0.01304493
0.01437842
0.01582709
0.01739853
0.01910060
0.02094141
0.02292929
0.02507279
0.02738063
0.02986172
0.03252507
0.03537980
0.03843509
0.04170015
0.04518416
0.04889628
0.05284551
0.05704073
0.06149060
0.06620354
0.07118765
0.07645064
0.08199983
0.08784205
0.09398358
0.10043012
0.10718671
0.11425770
0.12164665
0.12935634
0.13738870
0.14574472
0.15442448
0.16342707
0.17275055
0.18239196
0.19234727
0.20261135
0.21317801
0.22403993
0.23518871
0.24661487
0.25830786
0.27025606
0.28244685
0.29486662
0.30750083
0.32033402
0.33334993
0.34653149
0.35986095
0.37331990
0.38688938
0.40054994
0.41428176
0.42806467
0.44187830
0.45570215
0.46951569
0.48329841
0.49702999
0.51069029
0.52425955
0.53771837
0.55104787
0.56422973
0.57724629
0.59008059
0.60271645
0.61513856
0.62733247
0.63928469
0.65098271
0.66241505
0.67357127
0.68444198
0.69501889
0.70529480
0.71526358
0.72492020
0.73426070
0.74328217
0.75198272
0.76036148
0.76841854
0.77615493
0.78357254
0.79067414
0.79746328
0.80394425
0.81012204
0.81600227
0.82159117
0.82689545
0.83192234
0.83667945
0.84117476
0.84541656
0.84941339
0.85317399
0.85670724
0.86002214
0.86312775
0.86603312
0.86874730
0.87127928
0.87363793
0.87583203
0.87787017
0.87976077
0.88151207
0.88313205
0.88462848
0.88600885
0.88728041
0.88845011
0.88952464
0.89051039
0.89141346
0.89223965
0.89299451
0.89368324
0.89431082
0.89488189
0.89540088
0.89587190
0.89629882
0.89668529
0.89703467
0.89735013
0.89763459
0.89789078
0.89812123
0.89832826
0.89851403
0.89868052
0.89882956
0.89896282
0.89908183
0.89918800
0.89928260
0.89936681
0.89944169
0.89950820
0.89956722
0.89961955
0.89966589
0.89970690
0.89974316
0.89977519
0.89980346
0.89982841
0.89985040
0.89986978
0.89988684
0.89990187
0.89991511
0.89992676
0.89993702
0.89994606
0.89995404
0.89996108
0.89996732
0.89997285
0.89997777
0.89998217
0.89998612
0.89998969
0.89999295
0.89999593
0.89999870
0.90000130
0.90000376
0.90000611
0.90000839
0.90001063
0.90001284
0.90001505
0.90001727
0.90001952
0.90002182
0.90002418
0.90002660
0.90002910
0.90003167
0.90003434
0.90003710
0.90003997
0.90004293
0.90004600
0.90004918
0.90005246
0.90005586
0.90005937
0.90006300
0.90006675
0.90007064
0.90007469
0.90007893
0.90008343
0.90008824
0.90009338
0.90009846
0.90010263
0.90010663
0.90011874
0.90014926
0.90013080
0.89968933
0.89785444
0.89196890
0.86281093
0.68368334
0.46618174
0.30190633
0.19230558
0.12182504
0.07703297
0.04867887
0.03075447
0.01942862
0.01227334
0.00775316
0.00489770
0.00309388
0.00195440
0.00123460
0.00077989
0.00049266
0.00031121
0.00019659
0.00012419
0.00007845
0.00004956
0.00003130
0.00001977
0.00001249
0.00000789
0.00000498
0.00000315
0.00000199
0.00000126
0.00000079
0.00000050
0.00000032
0.00000020
0.00000013
0.00000008
0.00000005
0.00000003
0.00000002
0.00000001
0.00000001
0.00000001
0.00000000
0.00000000
0.00000000
0.00000000
0.00000000
0.00000000
0.00000000
0.00000000
0.00000000
0.00000000
0.00000000
0.00000000
0.00000000
0.00000000
0.00000000
0.00000000
0.00000000
0.00000000
0.00000000
0.00000000
0.00000000
0.00000000
0.00000000
0.00000000
0.00000000
0.00000000
0.00000000
0.00000000
0.00000000
0.00000000
0.00000000
0.00000000
0.00000000
0.00000000
0.00000000
0.00000000
0.00000000
0.00000000
0.00000000
0.00000000
0.00000000
0.00000000
0.00000000
0.00000000
0.00000000
0.00000000
0.00000000
0.00000000
0.00000000
0.00000000
0.00000000
0.00000000
0.00000000
0.00000000
0.00000000
0.00000000
0.00000000
0.00000000
0.00000000
0.00000000
0.00000000
0.00000000
0.00000000
0.00000000
0.00000000
0.00000000
0.00000000
0.00000000
0.00000000
0.00000000
0.00000000
0.00000000
0.00000000
0.00000000
0.00000000
0.00000000
0.00000000
0.00000000
0.00000000
0.00000000
0.00000000
0.00000000
0.00000000
0.00000000
0.00000000
0.00000000
0.00000000
0.00000000
0.00000000
0.00000000
0.00000000
0.00000000
0.00000000
0.00000000
0.00000000
0.00000000
0.00000000
0.00000000
0.00000000
0.00007326
0.00007505
0.00007868
0.00008420
0.00009172
0.00010138
0.00011335
0.00012785
0.00014514
0.00016551
0.00018933
0.00021699
0.00024895
0.00028573
0.00032792
0.00037618
0.00043124
0.00049392
0.00056513
0.00064588
0.00073729
0.00084059
0.00095712
0.00108838
0.00123599
0.00140173
0.00158755
0.00179555
0.00202804
0.00228750
0.00257663
0.00289833
0.00325575
0.00365224
0.00409142
0.00457717
0.00511362
0.00570518
0.00635652
0.00707263
0.00785877
0.00872050
0.00966367
0.01069445
0.01181929
0.01304493
0.01437842
0.01582709
0.01739853
0.01910060
0.02094141
0.02292929
0.02507279
0.02738063
0.02986172
0.03252507
0.03537980
0.03843509
0.04170015
0.04518417
0.04889628
0.05284551
0.05704073
0.06149060
0.06620354
0.07118765
0.07645064
0.08199983
0.08784205
0.09398358
0.10043012
0.10718671
0.11425770
0.12164665
0.12935634
0.13738870
0.14574472
0.15442448
0.16342707
0.17275055
0.18239196
0.19234727
0.20261135
0.21317801
0.22403993
0.23518871
0.24661487
0.25830786
0.27025606
0.28244685
0.29486662
0.30750083
0.32033402
0.33334993
0.34653149
0.35986095
0.37331990
0.38688937
0.40054994
0.41428175
0.42806466
0.44187829
0.45570215
0.46951568
0.48329841
0.49702998
0.51069029
0.52425954
0.53771836
0.55104786
0.56422972
0.57724628
0.59008058
0.60271644
0.61513855
0.62733245
0.63928467
0.65098270
0.66241504
0.67357126
0.68444197
0.69501888
0.70529478
0.71526357
0.72492019
0.73426069
0.74328215
0.75198270
0.76036146
0.76841853
0.77615491
0.78357252
0.79067412
0.79746326
0.80394423
0.81012202
0.81600225
0.82159115
0.82689543
0.83192232
0.83667943
0.84117474
0.84541654
0.84941337
0.85317397
0.85670722
0.86002212
0.86312772
0.86603309
0.86874728
0.87127925
0.87363791
0.87583200
0.87787014
0.87976075
0.88151204
0.88313202
0.88462845
0.88600882
0.88728038
0.88845008
0.88952461
0.89051035
0.89141342
0.89223961
0.89299446
0.89368320
0.89431077
0.89488185
0.89540083
0.89587184
0.89629877
0.89668523
0.89703461
0.89735006
0.89763452
0.89789071
0.89812116
0.89832818
0.89851395
0.89868044
0.89882947
0.89896272
0.89908173
0.89918789
0.89928249
0.89936669
0.89944157
0.89950807
0.89956709
0.89961940
0.89966574
0.89970674
0.89974299
0.89977501
0.89980327
0.89982820
0.89985018
0.89986954
0.89988660
0.89990161
0.89991482
0.89992645
0.89993669
0.89994570
0.89995365
0.89996066
0.89996685
0.89997234
0.89997722
0.89998157
0.89998546
0.89998897
0.89999215
0.89999506
0.89999774
0.90000024
0.90000259
0.90000483
0.90000698
0.90000908
0.90001113
0.90001317
0.90001521
0.90001727
0.90001935
0.90002147
0.90002363
0.90002585
0.90002813
0.90003047
0.90003288
0.90003536
0.90003791
0.90004053
0.90004323
0.90004599
0.90004881
0.90005169
0.90005462
0.90005758
0.90006058
0.90006360
0.90006665
0.90006975
0.90007292
0.90007610
0.90007887
0.90008033
0.90008121
0.90008983
0.90011648
0.90009364
0.89964880
0.89782827
0.89196717
0.86287733
0.68386913
0.46627543
0.30196909
0.19234637
0.12184920
0.07704740
0.04868747
0.03075957
0.01943164
0.01227513
0.00775421
0.00489831
0.00309424
0.00195462
0.00123472
0.00077997
0.00049270
0.00031124
0.00019661
0.00012419
0.00007845
0.00004956
0.00003131
0.00001978
0.00001249
0.00000789
0.00000498
0.00000315
0.00000199
0.00000126
0.00000079
0.00000050
0.00000032
0.00000020
0.00000013
0.00000008
0.00000005
0.00000003
0.00000002
0.00000001
0.00000001
0.00000001
0.00000000
0.00000000
0.00000000
0.00000000
0.00000000
0.00000000
0.00000000
0.00000000
0.00000000
0.00000000
0.00000000
0.00000000
0.00000000
0.00000000
0.00000000
0.00000000
0.00000000
0.00000000
0.00000000
0.00000000
0.00000000
0.00000000
0.00000000
0.00000000
0.00000000
0.00000000
0.00000000
0.00000000
0.00000000
0.00000000
0.00000000
0.00000000
0.00000000
0.00000000
0.00000000
0.00000000
0.00000000
0.00000000
0.00000000
0.00000000
0.00000000
0.00000000
0.00000000
0.00000000
0.00000000
0.00000000
0.00000000
0.00000000
0.00000000
0.00000000
0.00000000
0.00000000
0.00000000
0.00000000
0.00000000
0.00000000
0.00000000
0.00000000
0.00000000
0.00000000
0.00000000
0.00000000
0.00000000
0.00000000
0.00000000
0.00000000
0.00000000
0.00000000
0.00000000
0.00000000
0.00000000
0.00000000
0.00000000
0.00000000
0.00000000
0.00000000
0.00000000
0.00000000
0.00000000
0.00000000
0.00000000
0.00000000
0.00000000
0.00000000
0.00000000
0.00000000
0.00000000
0.00000000
0.00000000
0.00000000
0.00000000
0.00000000
0.00000000
0.00000000
0.00000000
0.00000000
0.00000000
0.00000000
0.00000000
0.00007326
0.00007505
0.00007868
0.00008420
0.00009172
0.00010138
0.00011335
0.00012785
0.00014514
0.00016551
0.00018933
0.00021699
0.00024895
0.00028573
0.00032792
0.00037618
0.00043124
0.00049392
0.00056513
0.00064588
0.00073729
0.00084059
0.00095712
0.00108838
0.00123599
0.00140173
0.00158755
0.00179555
0.00202804
0.00228750
0.00257663
0.00289833
0.00325575
0.00365224
0.00409142
0.00457717
0.00511362
0.00570518
0.00635652
0.00707263
0.00785877
0.00872050
0.00966367
0.01069445
0.01181929
0.01304493
0.01437842
0.01582709
0.01739853
0.01910060
0.02094141
0.02292929
0.02507279
0.02738063
0.02986172
0.03252507
0.03537980
0.03843509
0.04170015
0.04518417
0.04889628
0.05284551
0.05704073
0.06149060
0.06620354
0.07118765
0.07645064
0.08199984
0.08784205
0.09398359
0.10043012
0.10718671
0.11425770
0.12164665
0.12935634
0.13738870
0.14574472
0.15442448
0.16342707
0.17275055
0.18239196
0.19234727
0.20261135
0.21317801
0.22403993
0.23518871
0.24661487
0.25830786
0.27025606
0.28244685
0.29486662
0.30750082
0.32033402
0.33334992
0.34653149
0.35986094
0.37331989
0.38688937
0.40054994
0.41428175
0.42806466
0.44187829
0.45570214
0.46951568
0.48329840
0.49702997
0.51069028
0.52425953
0.53771835
0.55104785
0.56422971
0.57724627
0.59008057
0.60271643
0.61513853
0.62733244
0.63928466
0.65098269
0.66241503
0.67357124
0.68444195
0.69501886
0.70529477
0.71526355
0.72492017
0.73426067
0.74328213
0.75198268
0.76036144
0.76841850
0.77615489
0.78357250
0.79067410
0.79746324
0.80394420
0.81012199
0.81600223
0.82159112
0.82689541
0.83192229
0.83667940
0.84117471
0.84541651
0.84941334
0.85317394
0.85670719
0.86002209
0.86312769
0.86603306
0.86874724
0.87127922
0.87363787
0.87583197
0.87787011
0.87976071
0.88151200
0.88313198
0.88462841
0.88600878
0.88728034
0.88845004
0.88952456
0.89051031
0.89141337
0.89223957
0.89299441
0.89368315
0.89431071
0.89488179
0.89540076
0.89587178
0.89629870
0.89668516
0.89703453
0.89734998
0.89763444
0.89789063
0.89812106
0.89832809
0.89851385
0.89868033
0.89882936
0.89896260
0.89908160
0.89918776
0.89928235
0.89936655
0.89944142
0.89950791
0.89956692
0.89961923
0.89966555
0.89970654
0.89974278
0.89977479
0.89980304
0.89982796
0.89984992
0.89986927
0.89988630
0.89990129
0.89991448
0.89992608
0.89993629
0.89994527
0.89995318
0.89996015
0.89996630
0.89997174
0.89997656
0.89998085
0.89998467
0.89998811
0.89999121
0.89999402
0.89999660
0.89999899
0.90000122
0.90000332
0.90000532
0.90000725
0.90000913
0.90001097
0.90001280
0.90001462
0.90001645
0.90001829
0.90002016
0.90002205
0.90002398
0.90002595
0.90002795
0.90003000
0.90003208
0.90003420
0.90003634
0.90003851
0.90004069
0.90004285
0.90004500
0.90004709
0.90004910
0.90005101
0.90005278
0.90005440
0.90005585
0.90005704
0.90005753
0.90005642
0.90005452
0.90006024
0.90008395
0.90005807
0.89961007
0.89778742
0.89196214
0.86292468
0.68402052
0.46638413
0.30204223
0.19239098
0.12187718
0.07706419
0.04869742
0.03076547
0.01943513
0.01227719
0.00775543
0.00489903
0.00309467
0.00195487
0.00123487
0.00078005
0.00049275
0.00031127
0.00019662
0.00012421
0.00007846
0.00004956
0.00003131
0.00001978
0.00001249
0.00000789
0.00000499
0.00000315
0.00000199
0.00000126
0.00000079
0.00000050
0.00000032
0.00000020
0.00000013
0.00000008
0.00000005
0.00000003
0.00000002
0.00000001
0.00000001
0.00000001
0.00000000
0.00000000
0.00000000
0.00000000
0.00000000
0.00000000
0.00000000
0.00000000
0.00000000
0.00000000
0.00000000
0.00000000
0.00000000
0.00000000
0.00000000
0.00000000
0.00000000
0.00000000
0.00000000
0.00000000
0.00000000
0.00000000
0.00000000
0.00000000
0.00000000
0.00000000
0.00000000
0.00000000
0.00000000
0.00000000
0.00000000
0.00000000
0.00000000
0.00000000
0.00000000
0.00000000
0.00000000
0.00000000
0.00000000
0.00000000
0.00000000
0.00000000
0.00000000
0.00000000
0.00000000
0.00000000
0.00000000
0.00000000
0.00000000
0.00000000
0.00000000
0.00000000
0.00000000
0.00000000
0.00000000
0.00000000
0.00000000
0.00000000
0.00000000
0.00000000
0.00000000
0.00000000
0.00000000
0.00000000
0.00000000
0.00000000
0.00000000
0.00000000
0.00000000
0.00000000
0.00000000
0.00000000
0.00000000
0.00000000
0.00000000
0.00000000
0.00000000
0.00000000
0.00000000
0.00000000
0.00000000
0.00000000
0.00000000
0.00000000
0.00000000
0.00000000
0.00000000
0.00000000
0.00000000
0.00000000
0.00000000
0.00000000
0.00000000
0.00000000
0.00000000
0.00000000
0.00000000
0.00000000
0.00000000
0.00007326
0.00007505
0.00007868
0.00008420
0.00009172
0.00010138
0.00011335
0.00012785
0.00014514
0.00016551
0.00018933
0.00021699
0.00024895
0.00028573
0.00032792
0.00037618
0.00043124
0.00049392
0.00056513
0.00064588
0.00073729
0.00084059
0.00095712
0.00108838
0.00123599
0.00140173
0.00158755
0.00179555
0.00202804
0.00228750
0.00257663
0.00289833
0.00325575
0.00365224
0.00409142
0.00457717
0.00511362
0.00570518
0.00635652
0.00707263
0.00785877
0.00872050
0.00966367
0.01069445
0.01181929
0.01304493
0.01437842
0.01582709
0.01739853
0.01910060
0.02094141
0.02292929
0.02507279
0.02738063
0.02986172
0.03252507
0.03537980
0.03843509
0.04170015
0.04518417
0.04889628
0.05284551
0.05704073
0.06149060
0.06620354
0.07118765
0.07645064
0.08199984
0.08784205
0.09398359
0.10043012
0.10718672
0.11425770
0.12164665
0.12935634
0.13738870
0.14574472
0.15442448
0.16342707
0.17275055
0.18239196
0.19234727
0.20261135
0.21317801
0.22403992
0.23518871
0.24661487
0.25830785
0.27025605
0.28244684
0.29486662
0.30750082
0.32033402
0.33334992
0.34653148
0.35986094
0.37331989
0.38688936
0.40054993
0.41428174
0.42806465
0.44187828
0.45570213
0.46951567
0.48329839
0.49702996
0.51069027
0.52425952
0.53771834
0.55104784
0.56422970
0.57724626
0.59008055
0.60271642
0.61513852
0.62733243
0.63928464
0.65098267
0.66241501
0.67357122
0.68444193
0.69501884
0.70529475
0.71526353
0.72492015
0.73426064
0.74328211
0.75198266
0.76036142
0.76841848
0.77615486
0.78357247
0.79067407
0.79746321
0.80394418
0.81012196
0.81600220
0.82159109
0.82689538
0.83192226
0.83667937
0.84117468
0.84541648
0.84941331
0.85317390
0.85670715
0.86002206
0.86312766
0.86603303
0.86874721
0.87127918
0.87363783
0.87583193
0.87787006
0.87976067
0.88151196
0.88313194
0.88462836
0.88600873
0.88728029
0.88844999
0.88952451
0.89051025
0.89141331
0.89223951
0.89299435
0.89368308
0.89431065
0.89488172
0.89540069
0.89587170
0.89629862
0.89668507
0.89703445
0.89734989
0.89763434
0.89789052
0.89812096
0.89832797
0.89851373
0.89868021
0.89882923
0.89896247
0.89908146
0.89918761
0.89928219
0.89936638
0.89944124
0.89950773
0.89956673
0.89961903
0.89966534
0.89970632
0.89974254
0.89977454
0.89980277
0.89982767
0.89984962
0.89986894
0.89988596
0.89990092
0.89991408
0.89992566
0.89993583
0.89994478
0.89995265
0.89995957
0.89996568
0.89997106
0.89997582
0.89998004
0.89998379
0.89998714
0.89999014
0.89999285
0.89999532
0.89999758
0.89999967
0.90000162
0.90000346
0.90000521
0.90000689
0.90000852
0.90001011
0.90001168
0.90001323
0.90001477
0.90001632
0.90001786
0.90001942
0.90002098
0.90002255
0.90002412
0.90002570
0.90002727
0.90002883
0.90003036
0.90003186
0.90003328
0.90003461
0.90003580
0.90003681
0.90003758
0.90003807
0.90003823
0.90003801
0.90003732
0.90003572
0.90003239
0.90002828
0.90003202
0.90005419
0.90002737
0.89957849
0.89775484
0.89195572
0.86301061
0.68407793
0.46648847
0.30212716
0.19244584
0.12190866
0.07708268
0.04870829
0.03077190
0.01943894
0.01227945
0.00775676
0.00489982
0.00309514
0.00195514
0.00123503
0.00078015
0.00049281
0.00031130
0.00019664
0.00012422
0.00007847
0.00004957
0.00003131
0.00001978
0.00001249
0.00000789
0.00000499
0.00000315
0.00000199
0.00000126
0.00000079
0.00000050
0.00000032
0.00000020
0.00000013
0.00000008
0.00000005
0.00000003
0.00000002
0.00000001
0.00000001
0.00000001
0.00000000
0.00000000
0.00000000
0.00000000
0.00000000
0.00000000
0.00000000
0.00000000
0.00000000
0.00000000
0.00000000
0.00000000
0.00000000
0.00000000
0.00000000
0.00000000
0.00000000
0.00000000
0.00000000
0.00000000
0.00000000
0.00000000