# vtk DataFile Version 3.0
Concentration output
ASCII
DATASET STRUCTURED_POINTS
DIMENSIONS 398 98 1
ORIGIN 0 0 0
SPACING 0.03 0.03 1.0
POINT_DATA 39004
SCALARS Variable float 1
LOOKUP_TABLE default
0.00202234
0.00204082
0.00207788
0.00213374
0.00220870
0.00230319
0.00241774
0.00255297
0.00270964
0.00288859
0.00309078
0.00331728
0.00356928
0.00384805
0.00415501
0.00449168
0.00485969
0.00526080
0.00569687
0.00616989
0.00668195
0.00723530
0.00783226
0.00847530
0.00916700
0.00991005
0.01070727
0.01156160
0.01247607
0.01345385
0.01449821
0.01561252
0.01680027
0.01806503
0.01941049
0.02084041
0.02235865
0.02396914
0.02567590
0.02748299
0.02939454
0.03141475
0.03354781
0.03579800
0.03816957
0.04066681
0.04329399
0.04605539
0.04895522
0.05199769
0.05518694
0.05852703
0.06202195
0.06567559
0.06949174
0.07347402
0.07762594
0.08195085
0.08645190
0.09113206
0.09599410
0.10104054
0.10627369
0.11169559
0.11730799
0.12311239
0.12910998
0.13530161
0.14168785
0.14826889
0.15504461
0.16201451
0.16917772
0.17653301
0.18407876
0.19181296
0.19973322
0.20783674
0.21612033
0.22458042
0.23321301
0.24201374
0.25097784
0.26010016
0.26937519
0.27879704
0.28835945
0.29805584
0.30787928
0.31782252
0.32787801
0.33803793
0.34829416
0.35863836
0.36906194
0.37955612
0.39011191
0.40072020
0.41137170
0.42205701
0.43276668
0.44349115
0.45422085
0.46494618
0.47565756
0.48634545
0.49700039
0.50761297
0.51817393
0.52867413
0.53910461
0.54945657
0.55972145
0.56989088
0.57995676
0.58991128
0.59974686
0.60945628
0.61903261
0.62846925
0.63775996
0.64689883
0.65588036
0.66469938
0.67335113
0.68183123
0.69013568
0.69826090
0.70620367
0.71396120
0.72153107
0.72891126
0.73610012
0.74309641
0.74989923
0.75650806
0.76292275
0.76914347
0.77517074
0.78100541
0.78664861
0.79210182
0.79736674
0.80244540
0.80734004
0.81205317
0.81658751
0.82094598
0.82513170
0.82914799
0.83299829
0.83668622
0.84021550
0.84359000
0.84681365
0.84989050
0.85282464
0.85562024
0.85828150
0.86081265
0.86321795
0.86550164
0.86766799
0.86972121
0.87166551
0.87350507
0.87524401
0.87688639
0.87843623
0.87989746
0.88127396
0.88256951
0.88378781
0.88493248
0.88600703
0.88701488
0.88795936
0.88884368
0.88967097
0.89044423
0.89116637
0.89184019
0.89246839
0.89305355
0.89359815
0.89410457
0.89457509
0.89501187
0.89541700
0.89579244
0.89614008
0.89646171
0.89675901
0.89703360
0.89728700
0.89752065
0.89773590
0.89793405
0.89811629
0.89828377
0.89843755
0.89857864
0.89870798
0.89882645
0.89893487
0.89903402
0.89912462
0.89920733
0.89928279
0.89935157
0.89941421
0.89947123
0.89952307
0.89957018
0.89961296
0.89965177
0.89968695
0.89971882
0.89974767
0.89977376
0.89979735
0.89981865
0.89983788
0.89985522
0.89987084
0.89988492
0.89989759
0.89990898
0.89991922
0.89992842
0.89993667
0.89994408
0.89995072
0.89995667
0.89996200
0.89996677
0.89997103
0.89997485
0.89997826
0.89998130
0.89998402
0.89998645
0.89998862
0.89999055
0.89999228
0.89999382
0.89999520
0.89999643
0.89999753
0.89999851
0.89999940
0.90000019
0.90000091
0.90000155
0.90000214
0.90000267
0.90000316
0.90000361
0.90000402
0.90000441
0.90000477
0.90000512
0.90000545
0.90000576
0.90000607
0.90000638
0.90000668
0.90000698
0.90000729
0.90000760
0.90000791
0.90000824
0.90000858
0.90000893
0.90000929
0.90000967
0.90001007
0.90001049
0.90001093
0.90001139
0.90001187
0.90001238
0.90001292
0.90001348
0.90001407
0.90001470
0.90001535
0.90001603
0.90001675
0.90001750
0.90001829
0.90001911
0.90001996
0.90002086
0.90002179
0.90002275
0.90002376
0.90002480
0.90002589
0.90002702
0.90002819
0.90002940
0.90003066
0.90003196
0.90003332
0.90003472
0.90003618
0.90003770
0.90003927
0.90004092
0.90004263
0.90004442
0.90004630
0.90004826
0.90005033
0.90005251
0.90005482
0.90005726
0.90005987
0.90006264
0.90006562
0.90006882
0.90007226
0.90007599
0.90008002
0.90008441
0.90008919
0.90009442
0.90010013
0.90010639
0.90011328
0.90012085
0.90012919
0.90013841
0.90014859
0.90015987
0.90017238
0.90018628
0.90020174
0.90021897
0.90023818
0.90025962
0.90028355
0.90031028
0.90034013
0.90037346
0.90041068
0.90045225
0.90049868
0.90055053
0.90060852
0.90067326
0.90074421
0.90081859
0.90089803
0.90101293
0.90120833
0.90116882
0.89869274
0.88545629
0.83155997
0.62371491
0.41739123
0.26890678
0.17109166
0.10839893
0.06857813
0.04336246
0.02741235
0.01732728
0.01095176
0.00692172
0.00437446
0.00276451
0.00174701
0.00110398
0.00069761
0.00044081
0.00027853
0.00017599
0.00011120
0.00007026
0.00004439
0.00002805
0.00001772
0.00001120
0.00000707
0.00000447
0.00000282
0.00000178
0.00000113
0.00000071
0.00000045
0.00000029
0.00000019
0.00000012
0.00000009
0.00000007
0.00202234
0.00204082
0.00207788
0.00213374
0.00220870
0.00230319
0.00241774
0.00255297
0.00270964
0.00288859
0.00309078
0.00331728
0.00356928
0.00384805
0.00415501
0.00449168
0.00485969
0.00526080
0.00569687
0.00616989
0.00668195
0.00723530
0.00783226
0.00847530
0.00916700
0.00991005
0.01070727
0.01156160
0.01247607
0.01345385
0.01449821
0.01561252
0.01680027
0.01806503
0.01941049
0.02084041
0.02235865
0.02396914
0.02567590
0.02748299
0.02939454
0.03141475
0.03354781
0.03579800
0.03816957
0.04066681
0.04329399
0.04605539
0.04895522
0.05199769
0.05518694
0.05852703
0.06202195
0.06567559
0.06949174
0.07347402
0.07762594
0.08195085
0.08645190
0.09113206
0.09599410
0.10104054
0.10627369
0.11169559
0.11730799
0.12311239
0.12910998
0.13530161
0.14168785
0.14826889
0.15504461
0.16201451
0.16917772
0.17653301
0.18407876
0.19181296
0.19973322
0.20783674
0.21612033
0.22458042
0.23321301
0.24201374
0.25097784
0.26010016
0.26937519
0.27879704
0.28835945
0.29805584
0.30787928
0.31782252
0.32787801
0.33803793
0.34829416
0.35863836
0.36906194
0.37955612
0.39011191
0.40072020
0.41137169
0.42205701
0.43276668
0.44349115
0.45422085
0.46494618
0.47565756
0.48634545
0.49700038
0.50761297
0.51817393
0.52867413
0.53910461
0.54945657
0.55972145
0.56989088
0.57995676
0.58991127
0.59974686
0.60945628
0.61903261
0.62846925
0.63775996
0.64689883
0.65588036
0.66469938
0.67335113
0.68183123
0.69013568
0.69826090
0.70620367
0.71396120
0.72153107
0.72891126
0.73610012
0.74309641
0.74989923
0.75650806
0.76292275
0.76914347
0.77517074
0.78100541
0.78664861
0.79210181
0.79736674
0.80244540
0.80734004
0.81205317
0.81658751
0.82094597
0.82513170
0.82914799
0.83299829
0.83668621
0.84021550
0.84359000
0.84681365
0.84989050
0.85282464
0.85562024
0.85828150
0.86081265
0.86321795
0.86550164
0.86766798
0.86972121
0.87166551
0.87350507
0.87524400
0.87688639
0.87843623
0.87989746
0.88127396
0.88256951
0.88378781
0.88493248
0.88600703
0.88701488
0.88795935
0.88884368
0.88967097
0.89044423
0.89116637
0.89184019
0.89246839
0.89305355
0.89359815
0.89410457
0.89457508
0.89501187
0.89541700
0.89579244
0.89614008
0.89646170
0.89675901
0.89703360
0.89728700
0.89752064
0.89773590
0.89793404
0.89811628
0.89828376
0.89843754
0.89857863
0.89870797
0.89882644
0.89893486
0.89903401
0.89912461
0.89920732
0.89928278
0.89935156
0.89941420
0.89947121
0.89952306
0.89957017
0.89961294
0.89965175
0.89968693
0.89971880
0.89974765
0.89977374
0.89979733
0.89981863
0.89983786
0.89985520
0.89987082
0.89988490
0.89989756
0.89990896
0.89991920
0.89992839
0.89993665
0.89994405
0.89995069
0.89995664
0.89996197
0.89996674
0.89997100
0.89997481
0.89997822
0.89998126
0.89998398
0.89998641
0.89998857
0.89999051
0.89999223
0.89999377
0.89999515
0.89999638
0.89999748
0.89999846
0.89999934
0.90000014
0.90000085
0.90000149
0.90000208
0.90000261
0.90000309
0.90000354
0.90000395
0.90000434
0.90000470
0.90000504
0.90000537
0.90000568
0.90000599
0.90000629
0.90000659
0.90000689
0.90000719
0.90000749
0.90000781
0.90000813
0.90000846
0.90000881
0.90000917
0.90000954
0.90000994
0.90001035
0.90001078
0.90001124
0.90001171
0.90001222
0.90001275
0.90001330
0.90001389
0.90001450
0.90001515
0.90001582
0.90001653
0.90001727
0.90001804
0.90001885
0.90001970
0.90002058
0.90002149
0.90002244
0.90002343
0.90002446
0.90002553
0.90002664
0.90002778
0.90002897
0.90003021
0.90003149
0.90003281
0.90003419
0.90003561
0.90003710
0.90003864
0.90004024
0.90004191
0.90004365
0.90004547
0.90004738
0.90004938
0.90005149
0.90005373
0.90005609
0.90005860
0.90006128
0.90006414
0.90006722
0.90007052
0.90007410
0.90007797
0.90008217
0.90008675
0.90009174
0.90009720
0.90010318
0.90010975
0.90011697
0.90012492
0.90013370
0.90014339
0.90015413
0.90016603
0.90017926
0.90019396
0.90021034
0.90022861
0.90024900
0.90027175
0.90029717
0.90032554
0.90035723
0.90039262
0.90043213
0.90047626
0.90052554
0.90058065
0.90064216
0.90070945
0.90077966
0.90085434
0.90096389
0.90115280
0.90110488
0.89862347
0.88541821
0.83171291
0.62403405
0.41762689
0.26904482
0.17117051
0.10844433
0.06860412
0.04337730
0.02742084
0.01733214
0.01095454
0.00692331
0.00437537
0.00276503
0.00174731
0.00110415
0.00069771
0.00044087
0.00027857
0.00017601
0.00011121
0.00007027
0.00004440
0.00002805
0.00001772
0.00001120
0.00000707
0.00000447
0.00000282
0.00000178
0.00000113
0.00000071
0.00000045
0.00000029
0.00000019
0.00000012
0.00000009
0.00000007
0.00202234
0.00204082
0.00207788
0.00213374
0.00220870
0.00230319
0.00241774
0.00255297
0.00270964
0.00288859
0.00309078
0.00331728
0.00356928
0.00384805
0.00415501
0.00449168
0.00485969
0.00526080
0.00569687
0.00616989
0.00668195
0.00723530
0.00783226
0.00847530
0.00916700
0.00991005
0.01070727
0.01156160
0.01247607
0.01345385
0.01449821
0.01561252
0.01680027
0.01806503
0.01941049
0.02084041
0.02235865
0.02396914
0.02567590
0.02748299
0.02939454
0.03141475
0.03354781
0.03579800
0.03816957
0.04066681
0.04329399
0.04605539
0.04895522
0.05199769
0.05518694
0.05852703
0.06202195
0.06567559
0.06949174
0.07347402
0.07762594
0.08195085
0.08645190
0.09113206
0.09599410
0.10104054
0.10627369
0.11169559
0.11730799
0.12311239
0.12910998
0.13530161
0.14168785
0.14826889
0.15504461
0.16201451
0.16917772
0.17653301
0.18407876
0.19181296
0.19973322
0.20783674
0.21612033
0.22458042
0.23321301
0.24201374
0.25097784
0.26010016
0.26937519
0.27879704
0.28835945
0.29805584
0.30787928
0.31782252
0.32787801
0.33803793
0.34829416
0.35863836
0.36906194
0.37955611
0.39011191
0.40072020
0.41137169
0.42205701
0.43276668
0.44349115
0.45422085
0.46494617
0.47565756
0.48634545
0.49700038
0.50761297
0.51817393
0.52867413
0.53910461
0.54945657
0.55972144
0.56989087
0.57995676
0.58991127
0.59974686
0.60945628
0.61903261
0.62846925
0.63775995
0.64689883
0.65588036
0.66469938
0.67335113
0.68183122
0.69013568
0.69826089
0.70620367
0.71396120
0.72153107
0.72891125
0.73610012
0.74309640
0.74989922
0.75650806
0.76292275
0.76914347
0.77517074
0.78100540
0.78664861
0.79210181
0.79736674
0.80244540
0.80734004
0.81205317
0.81658750
0.82094597
0.82513170
0.82914798
0.83299829
0.83668621
0.84021550
0.84358999
0.84681365
0.84989049
0.85282464
0.85562024
0.85828150
0.86081265
0.86321795
0.86550164
0.86766798
0.86972120
0.87166551
0.87350507
0.87524400
0.87688639
0.87843622
0.87989746
0.88127396
0.88256951
0.88378781
0.88493248
0.88600702
0.88701487
0.88795935
0.88884368
0.88967096
0.89044422
0.89116637
0.89184019
0.89246839
0.89305354
0.89359814
0.89410456
0.89457508
0.89501186
0.89541699
0.89579243
0.89614007
0.89646170
0.89675900
0.89703359
0.89728699
0.89752063
0.89773589
0.89793403
0.89811627
0.89828375
0.89843753
0.89857862
0.89870796
0.89882642
0.89893485
0.89903400
0.89912459
0.89920730
0.89928276
0.89935154
0.89941418
0.89947119
0.89952304
0.89957014
0.89961292
0.89965172
0.89968690
0.89971877
0.89974762
0.89977371
0.89979729
0.89981859
0.89983782
0.89985515
0.89987078
0.89988485
0.89989752
0.89990891
0.89991915
0.89992834
0.89993659
0.89994400
0.89995063
0.89995658
0.89996191
0.89996667
0.89997093
0.89997474
0.89997815
0.89998119
0.89998391
0.89998633
0.89998849
0.89999042
0.89999215
0.89999368
0.89999506
0.89999628
0.89999738
0.89999836
0.89999924
0.90000003
0.90000074
0.90000138
0.90000196
0.90000248
0.90000296
0.90000340
0.90000381
0.90000419
0.90000455
0.90000489
0.90000521
0.90000552
0.90000582
0.90000611
0.90000640
0.90000670
0.90000699
0.90000729
0.90000759
0.90000791
0.90000823
0.90000857
0.90000892
0.90000929
0.90000967
0.90001007
0.90001049
0.90001094
0.90001140
0.90001189
0.90001241
0.90001295
0.90001352
0.90001412
0.90001474
0.90001540
0.90001609
0.90001681
0.90001756
0.90001835
0.90001917
0.90002002
0.90002091
0.90002183
0.90002279
0.90002378
0.90002481
0.90002588
0.90002699
0.90002814
0.90002932
0.90003055
0.90003182
0.90003314
0.90003450
0.90003591
0.90003738
0.90003890
0.90004048
0.90004212
0.90004384
0.90004564
0.90004752
0.90004950
0.90005158
0.90005378
0.90005611
0.90005859
0.90006124
0.90006408
0.90006712
0.90007040
0.90007395
0.90007779
0.90008196
0.90008651
0.90009147
0.90009690
0.90010285
0.90010939
0.90011658
0.90012450
0.90013325
0.90014293
0.90015366
0.90016556
0.90017880
0.90019354
0.90020997
0.90022830
0.90024877
0.90027162
0.90029714
0.90032563
0.90035744
0.90039297
0.90043263
0.90047692
0.90052645
0.90058168
0.90064187
0.90070400
0.90076948
0.90086851
0.90104449
0.90097867
0.89848777
0.88539332
0.83213335
0.62460490
0.41803402
0.26930446
0.17132479
0.10853307
0.06865485
0.04340629
0.02743742
0.01734163
0.01095998
0.00692643
0.00437716
0.00276606
0.00174790
0.00110449
0.00069790
0.00044098
0.00027863
0.00017605
0.00011123
0.00007028
0.00004440
0.00002805
0.00001772
0.00001120
0.00000707
0.00000447
0.00000282
0.00000178
0.00000113
0.00000071
0.00000045
0.00000029
0.00000019
0.00000012
0.00000009
0.00000007
0.00202234
0.00204082
0.00207788
0.00213374
0.00220870
0.00230319
0.00241774
0.00255297
0.00270964
0.00288859
0.00309078
0.00331728
0.00356928
0.00384805
0.00415501
0.00449168
0.00485969
0.00526080
0.00569687
0.00616989
0.00668195
0.00723530
0.00783226
0.00847530
0.00916700
0.00991005
0.01070727
0.01156160
0.01247607
0.01345385
0.01449821
0.01561252
0.01680027
0.01806503
0.01941049
0.02084041
0.02235865
0.02396914
0.02567590
0.02748299
0.02939454
0.03141475
0.03354781
0.03579800
0.03816957
0.04066681
0.04329399
0.04605539
0.04895522
0.05199769
0.05518694
0.05852703
0.06202195
0.06567559
0.06949174
0.07347402
0.07762594
0.08195085
0.08645190
0.09113206
0.09599410
0.10104054
0.10627369
0.11169559
0.11730799
0.12311239
0.12910998
0.13530161
0.14168785
0.14826889
0.15504461
0.16201451
0.16917772
0.17653301
0.18407876
0.19181296
0.19973322
0.20783674
0.21612033
0.22458042
0.23321301
0.24201374
0.25097784
0.26010016
0.26937519
0.27879704
0.28835945
0.29805584
0.30787927
0.31782251
0.32787801
0.33803793
0.34829416
0.35863836
0.36906194
0.37955611
0.39011191
0.40072020
0.41137169
0.42205701
0.43276668
0.44349115
0.45422084
0.46494617
0.47565755
0.48634545
0.49700038
0.50761296
0.51817392
0.52867413
0.53910460
0.54945657
0.55972144
0.56989087
0.57995676
0.58991127
0.59974686
0.60945628
0.61903260
0.62846925
0.63775995
0.64689883
0.65588035
0.66469937
0.67335112
0.68183122
0.69013568
0.69826089
0.70620367
0.71396120
0.72153106
0.72891125
0.73610012
0.74309640
0.74989922
0.75650806
0.76292274
0.76914346
0.77517074
0.78100540
0.78664861
0.79210181
0.79736674
0.80244539
0.80734004
0.81205317
0.81658750
0.82094597
0.82513170
0.82914798
0.83299828
0.83668621
0.84021549
0.84358999
0.84681364
0.84989049
0.85282463
0.85562023
0.85828149
0.86081265
0.86321794
0.86550164
0.86766798
0.86972120
0.87166551
0.87350506
0.87524400
0.87688638
0.87843622
0.87989746
0.88127396
0.88256951
0.88378781
0.88493247
0.88600702
0.88701487
0.88795935
0.88884367
0.88967096
0.89044422
0.89116636
0.89184019
0.89246838
0.89305354
0.89359814
0.89410456
0.89457507
0.89501186
0.89541698
0.89579243
0.89614006
0.89646169
0.89675899
0.89703358
0.89728698
0.89752062
0.89773587
0.89793402
0.89811626
0.89828373
0.89843751
0.89857860
0.89870794
0.89882640
0.89893482
0.89903397
0.89912456
0.89920727
0.89928273
0.89935151
0.89941415
0.89947116
0.89952300
0.89957011
0.89961288
0.89965168
0.89968686
0.89971872
0.89974757
0.89977366
0.89979724
0.89981854
0.89983776
0.89985509
0.89987072
0.89988479
0.89989745
0.89990884
0.89991907
0.89992826
0.89993651
0.89994392
0.89995055
0.89995649
0.89996181
0.89996658
0.89997083
0.89997464
0.89997804
0.89998108
0.89998379
0.89998621
0.89998837
0.89999030
0.89999202
0.89999355
0.89999492
0.89999614
0.89999723
0.89999821
0.89999908
0.89999986
0.90000057
0.90000120
0.90000177
0.90000230
0.90000277
0.90000321
0.90000361
0.90000398
0.90000433
0.90000466
0.90000497
0.90000527
0.90000556
0.90000585
0.90000613
0.90000641
0.90000670
0.90000699
0.90000728
0.90000758
0.90000789
0.90000822
0.90000855
0.90000891
0.90000927
0.90000966
0.90001007
0.90001049
0.90001094
0.90001141
0.90001191
0.90001243
0.90001297
0.90001355
0.90001415
0.90001478
0.90001544
0.90001613
0.90001685
0.90001760
0.90001839
0.90001920
0.90002005
0.90002093
0.90002184
0.90002278
0.90002376
0.90002477
0.90002582
0.90002690
0.90002802
0.90002917
0.90003036
0.90003159
0.90003286
0.90003417
0.90003553
0.90003693
0.90003839
0.90003990
0.90004147
0.90004310
0.90004480
0.90004659
0.90004846
0.90005042
0.90005250
0.90005470
0.90005704
0.90005953
0.90006219
0.90006505
0.90006813
0.90007145
0.90007505
0.90007896
0.90008321
0.90008785
0.90009292
0.90009848
0.90010457
0.90011128
0.90011867
0.90012683
0.90013586
0.90014588
0.90015701
0.90016939
0.90018320
0.90019860
0.90021578
0.90023497
0.90025639
0.90028030
0.90030701
0.90033683
0.90037012
0.90040729
0.90044884
0.90049512
0.90054520
0.90059587
0.90064842
0.90073269
0.90088993
0.90079520
0.89826740
0.88527678
0.83265032
0.62546288
0.41865526
0.26968025
0.17154611
0.10866037
0.06872769
0.04344796
0.02746126
0.01735529
0.01096780
0.00693092
0.00437974
0.00276754
0.00174875
0.00110498
0.00069819
0.00044114
0.00027873
0.00017611
0.00011127
0.00007030
0.00004441
0.00002806
0.00001773
0.00001120
0.00000708
0.00000447
0.00000282
0.00000178
0.00000113
0.00000071
0.00000045
0.00000029
0.00000019
0.00000012
0.00000009
0.00000007
0.00202234
0.00204082
0.00207788
0.00213374
0.00220870
0.00230319
0.00241774
0.00255297
0.00270964
0.00288859
0.00309078
0.00331728
0.00356928
0.00384805
0.00415501
0.00449168
0.00485969
0.00526080
0.00569687
0.00616989
0.00668195
0.00723530
0.00783226
0.00847530
0.00916700
0.00991005
0.01070727
0.01156160
0.01247607
0.01345385
0.01449821
0.01561252
0.01680027
0.01806503
0.01941049
0.02084041
0.02235865
0.02396914
0.02567590
0.02748299
0.02939454
0.03141475
0.03354781
0.03579800
0.03816957
0.04066681
0.04329399
0.04605539
0.04895522
0.05199769
0.05518694
0.05852703
0.06202195
0.06567559
0.06949174
0.07347402
0.07762594
0.08195085
0.08645190
0.09113206
0.09599410
0.10104054
0.10627369
0.11169559
0.11730799
0.12311239
0.12910998
0.13530161
0.14168785
0.14826889
0.15504461
0.16201451
0.16917772
0.17653301
0.18407876
0.19181296
0.19973322
0.20783674
0.21612033
0.22458042
0.23321301
0.24201374
0.25097784
0.26010016
0.26937519
0.27879704
0.28835945
0.29805584
0.30787927
0.31782251
0.32787801
0.33803792
0.34829416
0.35863835
0.36906193
0.37955611
0.39011191
0.40072019
0.41137169
0.42205701
0.43276667
0.44349115
0.45422084
0.46494617
0.47565755
0.48634545
0.49700038
0.50761296
0.51817392
0.52867412
0.53910460
0.54945656
0.55972144
0.56989087
0.57995675
0.58991127
0.59974685
0.60945627
0.61903260
0.62846924
0.63775995
0.64689882
0.65588035
0.66469937
0.67335112
0.68183122
0.69013567
0.69826089
0.70620366
0.71396119
0.72153106
0.72891125
0.73610011
0.74309640
0.74989922
0.75650805
0.76292274
0.76914346
0.77517073
0.78100539
0.78664860
0.79210180
0.79736673
0.80244539
0.80734003
0.81205316
0.81658749
0.82094596
0.82513169
0.82914798
0.83299828
0.83668620
0.84021549
0.84358999
0.84681364
0.84989049
0.85282463
0.85562023
0.85828149
0.86081264
0.86321794
0.86550164
0.86766798
0.86972120
0.87166550
0.87350506
0.87524400
0.87688638
0.87843622
0.87989745
0.88127395
0.88256950
0.88378780
0.88493247
0.88600702
0.88701487
0.88795934
0.88884367
0.88967095
0.89044422
0.89116636
0.89184018
0.89246838
0.89305353
0.89359813
0.89410455
0.89457507
0.89501185
0.89541697
0.89579241
0.89614005
0.89646167
0.89675898
0.89703356
0.89728696
0.89752060
0.89773586
0.89793400
0.89811624
0.89828371
0.89843749
0.89857858
0.89870791
0.89882637
0.89893479
0.89903394
0.89912453
0.89920724
0.89928269
0.89935146
0.89941410
0.89947111
0.89952295
0.89957006
0.89961282
0.89965163
0.89968680
0.89971866
0.89974751
0.89977359
0.89979717
0.89981846
0.89983768
0.89985502
0.89987063
0.89988470
0.89989736
0.89990874
0.89991897
0.89992816
0.89993641
0.89994381
0.89995044
0.89995638
0.89996169
0.89996645
0.89997070
0.89997451
0.89997790
0.89998094
0.89998364
0.89998606
0.89998821
0.89999013
0.89999185
0.89999337
0.89999474
0.89999595
0.89999704
0.89999800
0.89999887
0.89999965
0.90000034
0.90000097
0.90000154
0.90000205
0.90000252
0.90000294
0.90000333
0.90000370
0.90000404
0.90000436
0.90000466
0.90000495
0.90000523
0.90000550
0.90000577
0.90000604
0.90000631
0.90000659
0.90000687
0.90000715
0.90000745
0.90000775
0.90000807
0.90000841
0.90000875
0.90000912
0.90000950
0.90000991
0.90001033
0.90001078
0.90001125
0.90001174
0.90001226
0.90001280
0.90001337
0.90001397
0.90001459
0.90001524
0.90001592
0.90001663
0.90001736
0.90001813
0.90001892
0.90001975
0.90002060
0.90002148
0.90002239
0.90002333
0.90002430
0.90002530
0.90002633
0.90002738
0.90002847
0.90002959
0.90003074
0.90003193
0.90003315
0.90003440
0.90003570
0.90003703
0.90003841
0.90003984
0.90004132
0.90004286
0.90004447
0.90004614
0.90004790
0.90004974
0.90005169
0.90005375
0.90005594
0.90005827
0.90006077
0.90006344
0.90006632
0.90006943
0.90007280
0.90007645
0.90008042
0.90008475
0.90008948
0.90009466
0.90010036
0.90010663
0.90011355
0.90012120
0.90012970
0.90013914
0.90014966
0.90016139
0.90017448
0.90018909
0.90020541
0.90022362
0.90024396
0.90026667
0.90029202
0.90032033
0.90035196
0.90038710
0.90042464
0.90046117
0.90049796
0.90056438
0.90069829
0.90056657
0.89800775
0.88510857
0.83322209
0.62643265
0.41941622
0.27015254
0.17182057
0.10881928
0.06881901
0.04350023
0.02749119
0.01737243
0.01097764
0.00693656
0.00438298
0.00276940
0.00174983
0.00110560
0.00069854
0.00044135
0.00027885
0.00017617
0.00011131
0.00007032
0.00004443
0.00002807
0.00001773
0.00001120
0.00000708
0.00000447
0.00000283
0.00000179
0.00000113
0.00000071
0.00000045
0.00000029
0.00000019
0.00000012
0.00000009
0.00000007
0.00202234
0.00204082
0.00207788
0.00213374
0.00220870
0.00230319
0.00241774
0.00255297
0.00270964
0.00288859
0.00309078
0.00331728
0.00356928
0.00384805
0.00415501
0.00449168
0.00485969
0.00526080
0.00569687
0.00616989
0.00668196
0.00723530
0.00783226
0.00847530
0.00916700
0.00991005
0.01070727
0.01156160
0.01247607
0.01345385
0.01449821
0.01561252
0.01680027
0.01806503
0.01941049
0.02084041
0.02235865
0.02396914
0.02567590
0.02748299
0.02939455
0.03141475
0.03354781
0.03579800
0.03816957
0.04066681
0.04329399
0.04605539
0.04895522
0.05199769
0.05518694
0.05852703
0.06202195
0.06567559
0.06949174
0.07347402
0.07762594
0.08195085
0.08645190
0.09113206
0.09599410
0.10104054
0.10627369
0.11169559
0.11730799
0.12311239
0.12910998
0.13530161
0.14168785
0.14826889
0.15504461
0.16201451
0.16917772
0.17653301
0.18407876
0.19181296
0.19973322
0.20783674
0.21612033
0.22458042
0.23321301
0.24201374
0.25097784
0.26010016
0.26937519
0.27879704
0.28835945
0.29805584
0.30787927
0.31782251
0.32787801
0.33803792
0.34829415
0.35863835
0.36906193
0.37955611
0.39011191
0.40072019
0.41137169
0.42205701
0.43276667
0.44349114
0.45422084
0.46494617
0.47565755
0.48634544
0.49700037
0.50761296
0.51817392
0.52867412
0.53910460
0.54945656
0.55972143
0.56989086
0.57995675
0.58991126
0.59974685
0.60945627
0.61903260
0.62846924
0.63775994
0.64689882
0.65588034
0.66469936
0.67335111
0.68183121
0.69013566
0.69826088
0.70620366
0.71396118
0.72153105
0.72891124
0.73610010
0.74309639
0.74989921
0.75650805
0.76292273
0.76914345
0.77517072
0.78100539
0.78664860
0.79210180
0.79736672
0.80244538
0.80734003
0.81205315
0.81658749
0.82094596
0.82513169
0.82914797
0.83299827
0.83668620
0.84021549
0.84358998
0.84681363
0.84989048
0.85282462
0.85562022
0.85828149
0.86081264
0.86321794
0.86550163
0.86766797
0.86972119
0.87166550
0.87350506
0.87524399
0.87688637
0.87843621
0.87989745
0.88127395
0.88256950
0.88378780
0.88493246
0.88600701
0.88701486
0.88795934
0.88884366
0.88967095
0.89044421
0.89116635
0.89184017
0.89246837
0.89305352
0.89359812
0.89410454
0.89457505
0.89501184
0.89541696
0.89579240
0.89614004
0.89646166
0.89675896
0.89703355
0.89728694
0.89752058
0.89773584
0.89793397
0.89811621
0.89828369
0.89843746
0.89857855
0.89870788
0.89882634
0.89893476
0.89903390
0.89912449
0.89920719
0.89928264
0.89935142
0.89941405
0.89947106
0.89952289
0.89957000
0.89961276
0.89965156
0.89968673
0.89971859
0.89974743
0.89977351
0.89979708
0.89981838
0.89983759
0.89985492
0.89987053
0.89988459
0.89989725
0.89990863
0.89991886
0.89992804
0.89993628
0.89994367
0.89995030
0.89995623
0.89996154
0.89996630
0.89997054
0.89997434
0.89997773
0.89998076
0.89998346
0.89998587
0.89998802
0.89998993
0.89999164
0.89999316
0.89999451
0.89999572
0.89999680
0.89999776
0.89999862
0.89999938
0.90000007
0.90000069
0.90000125
0.90000175
0.90000220
0.90000262
0.90000300
0.90000335
0.90000368
0.90000399
0.90000428
0.90000455
0.90000482
0.90000508
0.90000533
0.90000559
0.90000584
0.90000610
0.90000636
0.90000663
0.90000690
0.90000719
0.90000748
0.90000779
0.90000812
0.90000846
0.90000882
0.90000919
0.90000959
0.90001001
0.90001044
0.90001090
0.90001138
0.90001189
0.90001242
0.90001297
0.90001355
0.90001416
0.90001479
0.90001544
0.90001612
0.90001683
0.90001756
0.90001831
0.90001910
0.90001990
0.90002073
0.90002158
0.90002246
0.90002336
0.90002428
0.90002523
0.90002619
0.90002718
0.90002820
0.90002923
0.90003029
0.90003138
0.90003248
0.90003362
0.90003478
0.90003597
0.90003719
0.90003845
0.90003974
0.90004108
0.90004246
0.90004390
0.90004540
0.90004697
0.90004861
0.90005034
0.90005216
0.90005410
0.90005616
0.90005835
0.90006070
0.90006322
0.90006593
0.90006885
0.90007202
0.90007546
0.90007921
0.90008330
0.90008780
0.90009276
0.90009824
0.90010431
0.90011107
0.90011859
0.90012699
0.90013636
0.90014682
0.90015851
0.90017156
0.90018615
0.90020243
0.90022061
0.90024090
0.90026332
0.90028655
0.90030707
0.90032622
0.90037305
0.90048167
0.90031057
0.89771707
0.88496789
0.83388683
0.62755364
0.42027898
0.27069908
0.17214039
0.10900288
0.06892419
0.04356048
0.02752573
0.01739224
0.01098901
0.00694309
0.00438674
0.00277157
0.00175107
0.00110632
0.00069896
0.00044159
0.00027898
0.00017625
0.00011135
0.00007035
0.00004444
0.00002808
0.00001774
0.00001121
0.00000708
0.00000447
0.00000283
0.00000179
0.00000113
0.00000071
0.00000045
0.00000029
0.00000019
0.00000012
0.00000009
0.00000007
0.00202234
0.00204082
0.00207788
0.00213374
0.00220870
0.00230319
0.00241774
0.00255297
0.00270964
0.00288859
0.00309078
0.00331728
0.00356928
0.00384805
0.00415501
0.00449168
0.00485969
0.00526080
0.00569687
0.00616989
0.00668196
0.00723530
0.00783226
0.00847530
0.00916700
0.00991005
0.01070727
0.01156160
0.01247607
0.01345385
0.01449821
0.01561252
0.01680027
0.01806503
0.01941049
0.02084041
0.02235865
0.02396915
0.02567590
0.02748299
0.02939455
0.03141475
0.03354781
0.03579800
0.03816957
0.04066681
0.04329399
0.04605539
0.04895522
0.05199769
0.05518694
0.05852703
0.06202195
0.06567559
0.06949174
0.07347402
0.07762594
0.08195085
0.08645190
0.09113206
0.09599410
0.10104054
0.10627369
0.11169559
0.11730799
0.12311239
0.12910998
0.13530161
0.14168785
0.14826889
0.15504461
0.16201450
0.16917772
0.17653301
0.18407875
0.19181296
0.19973322
0.20783674
0.21612033
0.22458042
0.23321301
0.24201374
0.25097784
0.26010016
0.26937519
0.27879703
0.28835945
0.29805583
0.30787927
0.31782251
0.32787800
0.33803792
0.34829415
0.35863835
0.36906193
0.37955611
0.39011190
0.40072019
0.41137168
0.42205700
0.43276667
0.44349114
0.45422083
0.46494616
0.47565754
0.48634544
0.49700037
0.50761295
0.51817391
0.52867412
0.53910459
0.54945656
0.55972143
0.56989086
0.57995674
0.58991125
0.59974684
0.60945626
0.61903259
0.62846923
0.63775993
0.64689881
0.65588034
0.66469936
0.67335111
0.68183120
0.69013566
0.69826087
0.70620365
0.71396118
0.72153105
0.72891123
0.73610010
0.74309638
0.74989920
0.75650804
0.76292272
0.76914345
0.77517072
0.78100538
0.78664859
0.79210179
0.79736672
0.80244537
0.80734002
0.81205315
0.81658748
0.82094595
0.82513168
0.82914796
0.83299827
0.83668619
0.84021548
0.84358997
0.84681363
0.84989047
0.85282462
0.85562022
0.85828148
0.86081263
0.86321793
0.86550163
0.86766797
0.86972119
0.87166549
0.87350505
0.87524399
0.87688637
0.87843621
0.87989744
0.88127394
0.88256949
0.88378779
0.88493246
0.88600700
0.88701486
0.88795933
0.88884366
0.88967094
0.89044420
0.89116634
0.89184016
0.89246836
0.89305351
0.89359811
0.89410453
0.89457504
0.89501182
0.89541695
0.89579239
0.89614002
0.89646164
0.89675894
0.89703353
0.89728692
0.89752056
0.89773581
0.89793395
0.89811618
0.89828365
0.89843743
0.89857851
0.89870784
0.89882630
0.89893471
0.89903385
0.89912444
0.89920714
0.89928259
0.89935136
0.89941399
0.89947099
0.89952283
0.89956992
0.89961268
0.89965148
0.89968665
0.89971850
0.89974733
0.89977341
0.89979698
0.89981827
0.89983748
0.89985480
0.89987041
0.89988447
0.89989712
0.89990849
0.89991871
0.89992789
0.89993613
0.89994352
0.89995013
0.89995606
0.89996137
0.89996611
0.89997036
0.89997415
0.89997753
0.89998055
0.89998324
0.89998564
0.89998779
0.89998969
0.89999139
0.89999290
0.89999425
0.89999545
0.89999652
0.89999747
0.89999832
0.89999907
0.89999975
0.90000036
0.90000090
0.90000139
0.90000184
0.90000224
0.90000261
0.90000295
0.90000326
0.90000355
0.90000383
0.90000409
0.90000434
0.90000458
0.90000482
0.90000505
0.90000529
0.90000552
0.90000576
0.90000601
0.90000626
0.90000652
0.90000680
0.90000708
0.90000738
0.90000769
0.90000802
0.90000836
0.90000872
0.90000910
0.90000950
0.90000992
0.90001036
0.90001083
0.90001131
0.90001181
0.90001234
0.90001289
0.90001347
0.90001406
0.90001468
0.90001532
0.90001597
0.90001665
0.90001735
0.90001807
0.90001881
0.90001957
0.90002034
0.90002113
0.90002193
0.90002275
0.90002358
0.90002443
0.90002529
0.90002616
0.90002704
0.90002793
0.90002883
0.90002974
0.90003066
0.90003159
0.90003253
0.90003348
0.90003444
0.90003541
0.90003639
0.90003739
0.90003841