# vtk DataFile Version 3.0
Concentration output
ASCII
DATASET STRUCTURED_POINTS
DIMENSIONS 398 98 1
ORIGIN 0 0 0
SPACING 0.03 0.03 1.0
POINT_DATA 39004
SCALARS Variable float 1
LOOKUP_TABLE default
0.00000194
0.00000205
0.00000226
0.00000260
0.00000306
0.00000368
0.00000448
0.00000550
0.00000677
0.00000836
0.00001032
0.00001273
0.00001568
0.00001930
0.00002370
0.00002906
0.00003555
0.00004341
0.00005290
0.00006433
0.00007807
0.00009453
0.00011424
0.00013775
0.00016576
0.00019904
0.00023850
0.00028517
0.00034027
0.00040516
0.00048141
0.00057080
0.00067538
0.00079744
0.00093959
0.00110476
0.00129625
0.00151776
0.00177342
0.00206783
0.00240610
0.00279389
0.00323746
0.00374367
0.00432008
0.00497494
0.00571726
0.00655681
0.00750419
0.00857084
0.00976906
0.01111203
0.01261384
0.01428947
0.01615480
0.01822661
0.02052254
0.02306104
0.02586138
0.02894355
0.03232818
0.03603650
0.04009020
0.04451133
0.04932219
0.05454517
0.06020258
0.06631652
0.07290868
0.08000011
0.08761108
0.09576084
0.10446737
0.11374723
0.12361524
0.13408436
0.14516538
0.15686674
0.16919435
0.18215133
0.19573790
0.20995116
0.22478501
0.24022997
0.25627315
0.27289814
0.29008503
0.30781037
0.32604726
0.34476540
0.36393120
0.38350796
0.40345603
0.42373306
0.44429428
0.46509272
0.48607963
0.50720478
0.52841683
0.54966378
0.57089333
0.59205336
0.61309234
0.63395978
0.65460666
0.67498592
0.69505281
0.71476537
0.73408480
0.75297581
0.77140696
0.78935091
0.80678470
0.82368985
0.84005249
0.85586339
0.87111796
0.88581637
0.89996375
0.91357084
0.92665548
0.93924546
0.95138381
0.96313835
0.97461821
0.98600185
0.99757648
1.00971103
1.02235210
1.03178099
1.02787978
1.02106116
1.01415466
1.00750380
1.00091294
0.99369975
0.98450176
0.97122946
0.95117584
0.92073515
0.87579980
0.81339047
0.73506875
0.64836490
0.56181658
0.48135854
0.40983895
0.34794864
0.29519726
0.25058125
0.21296141
0.18124722
0.15447271
0.13181592
0.11259234
0.09623807
0.08229048
0.07037004
0.06016443
0.05141550
0.04390862
0.03746427
0.03193134
0.02718190
0.02310707
0.01961369
0.01662178
0.01406241
0.01187605
0.01001117
0.00842311
0.00707316
0.00592772
0.00495770
0.00413786
0.00344638
0.00286438
0.00237559
0.00196596
0.00162344
0.00133767
0.00109979
0.00090222
0.00073850
0.00060316
0.00049152
0.00039965
0.00032423
0.00026245
0.00021197
0.00017081
0.00013734
0.00011018
0.00008819
0.00007043
0.00005612
0.00004462
0.00003540
0.00002802
0.00002212
0.00001743
0.00001371
0.00001075
0.00000841
0.00000657
0.00000512
0.00000398
0.00000309
0.00000239
0.00000185
0.00000142
0.00000109
0.00000084
0.00000064
0.00000049
0.00000037
0.00000028
0.00000022
0.00000016
0.00000012
0.00000009
0.00000007
0.00000005
0.00000004
0.00000003
0.00000002
0.00000002
0.00000001
0.00000001
0.00000001
0.00000000
0.00000000
0.00000000
0.00000000
0.00000000
0.00000000
0.00000000
0.00000000
0.00000000
0.00000000
0.00000000
0.00000000
0.00000000
0.00000000
0.00000000
0.00000000
0.00000000
0.00000000
0.00000000
0.00000000
0.00000000
0.00000000
0.00000000
0.00000000
0.00000000
0.00000000
0.00000000
0.00000000
0.00000000
0.00000000
0.00000000
0.00000000
0.00000000
0.00000000
0.00000000
0.00000000
0.00000000
0.00000000
0.00000000
0.00000000
0.00000000
0.00000000
0.00000000
0.00000000
0.00000000
0.00000000
0.00000000
0.00000000
0.00000000
0.00000000
0.00000000
0.00000000
0.00000000
0.00000000
0.00000000
0.00000000
0.00000000
0.00000000
0.00000000
0.00000000
0.00000000
0.00000000
0.00000000
0.00000000
0.00000000
0.00000000
0.00000000
0.00000000
0.00000000
0.00000000
0.00000000
0.00000000
0.00000000
0.00000000
0.00000000
0.00000000
0.00000000
0.00000000
0.00000000
0.00000000
0.00000000
0.00000000
0.00000000
0.00000000
0.00000000
0.00000000
0.00000000
0.00000000
0.00000000
0.00000000
0.00000000
0.00000000
0.00000000
0.00000000
0.00000000
0.00000000
0.00000000
0.00000000
0.00000000
0.00000000
0.00000000
0.00000000
0.00000000
0.00000000
0.00000000
0.00000000
0.00000000
0.00000000
0.00000000
0.00000000
0.00000000
0.00000000
0.00000000
0.00000000
0.00000000
0.00000000
0.00000000
0.00000000
0.00000000
0.00000000
0.00000000
0.00000000
0.00000000
0.00000000
0.00000000
0.00000000
0.00000000
0.00000000
0.00000000
0.00000000
0.00000000
0.00000000
0.00000000
0.00000000
0.00000000
0.00000000
0.00000000
0.00000000
0.00000000
0.00000000
0.00000000
0.00000000
0.00000000
0.00000000
0.00000000
0.00000000
0.00000000
0.00000000
0.00000000
0.00000000
0.00000000
0.00000000
0.00000000
0.00000000
0.00000000
0.00000000
0.00000000
0.00000000
0.00000000
0.00000000
0.00000000
0.00000000
0.00000000
0.00000000
0.00000000
0.00000000
0.00000000
0.00000000
0.00000194
0.00000205
0.00000226
0.00000260
0.00000306
0.00000368
0.00000448
0.00000550
0.00000677
0.00000836
0.00001032
0.00001273
0.00001568
0.00001930
0.00002370
0.00002906
0.00003555
0.00004341
0.00005290
0.00006433
0.00007807
0.00009453
0.00011424
0.00013775
0.00016576
0.00019904
0.00023850
0.00028517
0.00034027
0.00040516
0.00048141
0.00057080
0.00067538
0.00079744
0.00093959
0.00110476
0.00129625
0.00151776
0.00177342
0.00206783
0.00240610
0.00279389
0.00323746
0.00374367
0.00432008
0.00497494
0.00571726
0.00655681
0.00750419
0.00857084
0.00976906
0.01111203
0.01261384
0.01428947
0.01615480
0.01822661
0.02052254
0.02306104
0.02586138
0.02894355
0.03232818
0.03603650
0.04009020
0.04451133
0.04932219
0.05454517
0.06020258
0.06631652
0.07290868
0.08000011
0.08761108
0.09576084
0.10446737
0.11374723
0.12361525
0.13408436
0.14516538
0.15686674
0.16919435
0.18215133
0.19573790
0.20995116
0.22478501
0.24022997
0.25627315
0.27289814
0.29008503
0.30781037
0.32604726
0.34476540
0.36393120
0.38350796
0.40345603
0.42373306
0.44429427
0.46509271
0.48607961
0.50720475
0.52841678
0.54966371
0.57089324
0.59205323
0.61309216
0.63395952
0.65460632
0.67498545
0.69505217
0.71476451
0.73408363
0.75297420
0.77140473
0.78934782
0.80678038
0.82368377
0.84004388
0.85585113
0.87110042
0.88579111
0.89992710
0.91351724
0.92657624
0.93912671
0.95120290
0.96285724
0.97417141
0.98527361
0.99635965
1.00767438
1.01920920
1.02874644
1.02658526
1.02082198
1.01437012
1.00845592
1.00307674
0.99781311
0.99148407
0.98230442
0.96730065
0.94252282
0.90234952
0.84105599
0.75848727
0.66488637
0.57220813
0.48741817
0.41320110
0.34974503
0.29612534
0.25104344
0.21318050
0.18134318
0.15450862
0.13182416
0.11258905
0.09623096
0.08228300
0.07036352
0.06015923
0.05141157
0.04390575
0.03746221
0.03192990
0.02718091
0.02310639
0.01961324
0.01662148
0.01406221
0.01187592
0.01001109
0.00842306
0.00707312
0.00592770
0.00495769
0.00413786
0.00344638
0.00286438
0.00237559
0.00196596
0.00162344
0.00133767
0.00109979
0.00090222
0.00073850
0.00060316
0.00049152
0.00039965
0.00032423
0.00026245
0.00021197
0.00017081
0.00013734
0.00011018
0.00008819
0.00007043
0.00005612
0.00004462
0.00003540
0.00002802
0.00002212
0.00001743
0.00001371
0.00001075
0.00000841
0.00000657
0.00000512
0.00000398
0.00000309
0.00000239
0.00000185
0.00000142
0.00000109
0.00000084
0.00000064
0.00000049
0.00000037
0.00000028
0.00000022
0.00000016
0.00000012
0.00000009
0.00000007
0.00000005
0.00000004
0.00000003
0.00000002
0.00000002
0.00000001
0.00000001
0.00000001
0.00000000
0.00000000
0.00000000
0.00000000
0.00000000
0.00000000
0.00000000
0.00000000
0.00000000
0.00000000
0.00000000
0.00000000
0.00000000
0.00000000
0.00000000
0.00000000
0.00000000
0.00000000
0.00000000
0.00000000
0.00000000
0.00000000
0.00000000
0.00000000
0.00000000
0.00000000
0.00000000
0.00000000
0.00000000
0.00000000
0.00000000
0.00000000
0.00000000
0.00000000
0.00000000
0.00000000
0.00000000
0.00000000
0.00000000
0.00000000
0.00000000
0.00000000
0.00000000
0.00000000
0.00000000
0.00000000
0.00000000
0.00000000
0.00000000
0.00000000
0.00000000
0.00000000
0.00000000
0.00000000
0.00000000
0.00000000
0.00000000
0.00000000
0.00000000
0.00000000
0.00000000
0.00000000
0.00000000
0.00000000
0.00000000
0.00000000
0.00000000
0.00000000
0.00000000
0.00000000
0.00000000
0.00000000
0.00000000
0.00000000
0.00000000
0.00000000
0.00000000
0.00000000
0.00000000
0.00000000
0.00000000
0.00000000
0.00000000
0.00000000
0.00000000
0.00000000
0.00000000
0.00000000
0.00000000
0.00000000
0.00000000
0.00000000
0.00000000
0.00000000
0.00000000
0.00000000
0.00000000
0.00000000
0.00000000
0.00000000
0.00000000
0.00000000
0.00000000
0.00000000
0.00000000
0.00000000
0.00000000
0.00000000
0.00000000
0.00000000
0.00000000
0.00000000
0.00000000
0.00000000
0.00000000
0.00000000
0.00000000
0.00000000
0.00000000
0.00000000
0.00000000
0.00000000
0.00000000
0.00000000
0.00000000
0.00000000
0.00000000
0.00000000
0.00000000
0.00000000
0.00000000
0.00000000
0.00000000
0.00000000
0.00000000
0.00000000
0.00000000
0.00000000
0.00000000
0.00000000
0.00000000
0.00000000
0.00000000
0.00000000
0.00000000
0.00000000
0.00000000
0.00000000
0.00000000
0.00000000
0.00000000
0.00000000
0.00000000
0.00000000
0.00000000
0.00000000
0.00000000
0.00000000
0.00000000
0.00000000
0.00000000
0.00000000
0.00000000
0.00000000
0.00000000
0.00000000
0.00000000
0.00000000
0.00000194
0.00000205
0.00000226
0.00000260
0.00000306
0.00000368
0.00000448
0.00000550
0.00000677
0.00000836
0.00001032
0.00001273
0.00001568
0.00001930
0.00002370
0.00002906
0.00003555
0.00004341
0.00005290
0.00006433
0.00007807
0.00009453
0.00011424
0.00013775
0.00016576
0.00019904
0.00023850
0.00028517
0.00034027
0.00040516
0.00048141
0.00057080
0.00067538
0.00079744
0.00093959
0.00110476
0.00129625
0.00151776
0.00177342
0.00206783
0.00240610
0.00279389
0.00323746
0.00374367
0.00432008
0.00497494
0.00571726
0.00655681
0.00750419
0.00857084
0.00976906
0.01111203
0.01261384
0.01428947
0.01615480
0.01822661
0.02052254
0.02306104
0.02586138
0.02894355
0.03232818
0.03603650
0.04009020
0.04451133
0.04932219
0.05454517
0.06020258
0.06631652
0.07290868
0.08000011
0.08761108
0.09576084
0.10446737
0.11374723
0.12361525
0.13408436
0.14516538
0.15686674
0.16919435
0.18215133
0.19573790
0.20995116
0.22478501
0.24022998
0.25627315
0.27289815
0.29008503
0.30781038
0.32604727
0.34476541
0.36393121
0.38350796
0.40345603
0.42373306
0.44429426
0.46509269
0.48607958
0.50720469
0.52841670
0.54966359
0.57089306
0.59205298
0.61309181
0.63395905
0.65460567
0.67498457
0.69505098
0.71476288
0.73408141
0.75297116
0.77140055
0.78934202
0.80677228
0.82367240
0.84002782
0.85582835
0.87106794
0.88574457
0.89986001
0.91341977
0.92643323
0.93891429
0.95088258
0.96236545
0.97340039
0.98403552
0.99431767
1.00422894
1.01345067
1.02049775
1.02152939
1.01897402
1.01419716
1.00969853
1.00632958
1.00425663
1.00279115
0.99980948
0.99345506
0.97941815
0.94989944
0.89365773
0.80373513
0.69636399
0.59147946
0.49838762
0.41916113
0.35287276
0.29771286
0.25181749
0.21353641
0.18149078
0.15455690
0.13182832
0.11257615
0.09621359
0.08226651
0.07034979
0.06014857
0.05140363
0.04390001
0.03745816
0.03192708
0.02717898
0.02310509
0.01961236
0.01662090
0.01406184
0.01187568
0.01001093
0.00842296
0.00707306
0.00592767
0.00495767
0.00413784
0.00344637
0.00286438
0.00237559
0.00196596
0.00162344
0.00133767
0.00109979
0.00090222
0.00073850
0.00060316
0.00049152
0.00039965
0.00032423
0.00026245
0.00021197
0.00017081
0.00013734
0.00011018
0.00008819
0.00007043
0.00005612
0.00004462
0.00003540
0.00002802
0.00002212
0.00001743
0.00001371
0.00001075
0.00000841
0.00000657
0.00000512
0.00000398
0.00000309
0.00000239
0.00000185
0.00000142
0.00000109
0.00000084
0.00000064
0.00000049
0.00000037
0.00000028
0.00000022
0.00000016
0.00000012
0.00000009
0.00000007
0.00000005
0.00000004
0.00000003
0.00000002
0.00000002
0.00000001
0.00000001
0.00000001
0.00000000
0.00000000
0.00000000
0.00000000
0.00000000
0.00000000
0.00000000
0.00000000
0.00000000
0.00000000
0.00000000
0.00000000
0.00000000
0.00000000
0.00000000
0.00000000
0.00000000
0.00000000
0.00000000
0.00000000
0.00000000
0.00000000
0.00000000
0.00000000
0.00000000
0.00000000
0.00000000
0.00000000
0.00000000
0.00000000
0.00000000
0.00000000
0.00000000
0.00000000
0.00000000
0.00000000
0.00000000
0.00000000
0.00000000
0.00000000
0.00000000
0.00000000
0.00000000
0.00000000
0.00000000
0.00000000
0.00000000
0.00000000
0.00000000
0.00000000
0.00000000
0.00000000
0.00000000
0.00000000
0.00000000
0.00000000
0.00000000
0.00000000
0.00000000
0.00000000
0.00000000
0.00000000
0.00000000
0.00000000
0.00000000
0.00000000
0.00000000
0.00000000
0.00000000
0.00000000
0.00000000
0.00000000
0.00000000
0.00000000
0.00000000
0.00000000
0.00000000
0.00000000
0.00000000
0.00000000
0.00000000
0.00000000
0.00000000
0.00000000
0.00000000
0.00000000
0.00000000
0.00000000
0.00000000
0.00000000
0.00000000
0.00000000
0.00000000
0.00000000
0.00000000
0.00000000
0.00000000
0.00000000
0.00000000
0.00000000
0.00000000
0.00000000
0.00000000
0.00000000
0.00000000
0.00000000
0.00000000
0.00000000
0.00000000
0.00000000
0.00000000
0.00000000
0.00000000
0.00000000
0.00000000
0.00000000
0.00000000
0.00000000
0.00000000
0.00000000
0.00000000
0.00000000
0.00000000
0.00000000
0.00000000
0.00000000
0.00000000
0.00000000
0.00000000
0.00000000
0.00000000
0.00000000
0.00000000
0.00000000
0.00000000
0.00000000
0.00000000
0.00000000
0.00000000
0.00000000
0.00000000
0.00000000
0.00000000
0.00000000
0.00000000
0.00000000
0.00000000
0.00000000
0.00000000
0.00000000
0.00000000
0.00000000
0.00000000
0.00000000
0.00000000
0.00000000
0.00000000
0.00000000
0.00000000
0.00000000
0.00000000
0.00000000
0.00000000
0.00000000
0.00000000
0.00000000
0.00000000
0.00000000
0.00000194
0.00000205
0.00000226
0.00000260
0.00000306
0.00000368
0.00000448
0.00000550
0.00000677
0.00000836
0.00001032
0.00001273
0.00001568
0.00001930
0.00002370
0.00002906
0.00003555
0.00004341
0.00005290
0.00006433
0.00007807
0.00009453
0.00011424
0.00013775
0.00016576
0.00019904
0.00023850
0.00028517
0.00034027
0.00040516
0.00048141
0.00057080
0.00067538
0.00079744
0.00093959
0.00110476
0.00129625
0.00151776
0.00177342
0.00206783
0.00240610
0.00279390
0.00323746
0.00374367
0.00432008
0.00497494
0.00571726
0.00655681
0.00750419
0.00857084
0.00976906
0.01111203
0.01261384
0.01428947
0.01615480
0.01822661
0.02052254
0.02306104
0.02586139
0.02894355
0.03232818
0.03603650
0.04009020
0.04451133
0.04932219
0.05454517
0.06020258
0.06631652
0.07290868
0.08000011
0.08761108
0.09576084
0.10446737
0.11374723
0.12361525
0.13408436
0.14516538
0.15686675
0.16919435
0.18215133
0.19573790
0.20995117
0.22478502
0.24022998
0.25627316
0.27289815
0.29008504
0.30781038
0.32604728
0.34476541
0.36393121
0.38350797
0.40345603
0.42373306
0.44429425
0.46509267
0.48607954
0.50720463
0.52841660
0.54966343
0.57089283
0.59205266
0.61309136
0.63395842
0.65460480
0.67498338
0.69504936
0.71476069
0.73407841
0.75296705
0.77139488
0.78933418
0.80676137
0.82365714
0.84000639
0.85579813
0.87102519
0.88568385
0.89977337
0.91329538
0.92625321
0.93865102
0.95049264
0.96177937
0.97250548
0.98264784
0.99214079
1.00081466
1.00826349
1.01360716
1.01553624
1.01466597
1.01199120
1.00917554
1.00698627
1.00577162
1.00523139
1.00465962
1.00330943
0.99963343
0.98848584
0.95156393
0.86129645
0.73689816
0.61562885
0.51170376
0.42618297
0.35644735
0.29946611
0.25263337
0.21388342
0.18161238
0.15457667
0.13180721
0.11254286
0.09618063
0.08223852
0.07032779
0.06013206
0.05139162
0.04389148
0.03745221
0.03192299
0.02717620
0.02310322
0.01961112
0.01662009
0.01406131
0.01187534
0.01001072
0.00842283
0.00707298
0.00592762
0.00495764
0.00413783
0.00344636
0.00286438
0.00237559
0.00196596
0.00162344
0.00133767
0.00109979
0.00090222
0.00073851
0.00060316
0.00049152
0.00039965
0.00032423
0.00026245
0.00021197
0.00017081
0.00013734
0.00011018
0.00008819
0.00007043
0.00005612
0.00004462
0.00003540
0.00002802
0.00002212
0.00001743
0.00001371
0.00001075
0.00000841
0.00000657
0.00000512
0.00000398
0.00000309
0.00000239
0.00000185
0.00000142
0.00000109
0.00000084
0.00000064
0.00000049
0.00000037
0.00000028
0.00000022
0.00000016
0.00000012
0.00000009
0.00000007
0.00000005
0.00000004
0.00000003
0.00000002
0.00000002
0.00000001
0.00000001
0.00000001
0.00000000
0.00000000
0.00000000
0.00000000
0.00000000
0.00000000
0.00000000
0.00000000
0.00000000
0.00000000
0.00000000
0.00000000
0.00000000
0.00000000
0.00000000
0.00000000
0.00000000
0.00000000
0.00000000
0.00000000
0.00000000
0.00000000
0.00000000
0.00000000
0.00000000
0.00000000
0.00000000
0.00000000
0.00000000
0.00000000
0.00000000
0.00000000
0.00000000
0.00000000
0.00000000
0.00000000
0.00000000
0.00000000
0.00000000
0.00000000
0.00000000
0.00000000
0.00000000
0.00000000
0.00000000
0.00000000
0.00000000
0.00000000
0.00000000
0.00000000
0.00000000
0.00000000
0.00000000
0.00000000
0.00000000
0.00000000
0.00000000
0.00000000
0.00000000
0.00000000
0.00000000
0.00000000
0.00000000
0.00000000
0.00000000
0.00000000
0.00000000
0.00000000
0.00000000
0.00000000
0.00000000
0.00000000
0.00000000
0.00000000
0.00000000
0.00000000
0.00000000
0.00000000
0.00000000
0.00000000
0.00000000
0.00000000
0.00000000
0.00000000
0.00000000
0.00000000
0.00000000
0.00000000
0.00000000
0.00000000
0.00000000
0.00000000
0.00000000
0.00000000
0.00000000
0.00000000
0.00000000
0.00000000
0.00000000
0.00000000
0.00000000
0.00000000
0.00000000
0.00000000
0.00000000
0.00000000
0.00000000
0.00000000
0.00000000
0.00000000
0.00000000
0.00000000
0.00000000
0.00000000
0.00000000
0.00000000
0.00000000
0.00000000
0.00000000
0.00000000
0.00000000
0.00000000
0.00000000
0.00000000
0.00000000
0.00000000
0.00000000
0.00000000
0.00000000
0.00000000
0.00000000
0.00000000
0.00000000
0.00000000
0.00000000
0.00000000
0.00000000
0.00000000
0.00000000
0.00000000
0.00000000
0.00000000
0.00000000
0.00000000
0.00000000
0.00000000
0.00000000
0.00000000
0.00000000
0.00000000
0.00000000
0.00000000
0.00000000
0.00000000
0.00000000
0.00000000
0.00000000
0.00000000
0.00000000
0.00000000
0.00000000
0.00000000
0.00000000
0.00000000
0.00000000
0.00000000
0.00000000
0.00000000
0.00000194
0.00000205
0.00000226
0.00000260
0.00000306
0.00000368
0.00000448
0.00000550
0.00000677
0.00000836
0.00001032
0.00001273
0.00001568
0.00001930
0.00002370
0.00002906
0.00003555
0.00004341
0.00005290
0.00006433
0.00007807
0.00009453
0.00011424
0.00013775
0.00016576
0.00019904
0.00023850
0.00028517
0.00034027
0.00040516
0.00048141
0.00057080
0.00067538
0.00079744
0.00093959
0.00110476
0.00129625
0.00151776
0.00177342
0.00206783
0.00240610
0.00279390
0.00323746
0.00374367
0.00432008
0.00497494
0.00571726
0.00655681
0.00750419
0.00857084
0.00976906
0.01111203
0.01261384
0.01428947
0.01615480
0.01822661
0.02052254
0.02306104
0.02586139
0.02894355
0.03232818
0.03603650
0.04009020
0.04451133
0.04932219
0.05454517
0.06020258
0.06631653
0.07290868
0.08000011
0.08761108
0.09576084
0.10446737
0.11374723
0.12361525
0.13408436
0.14516538
0.15686675
0.16919435
0.18215133
0.19573790
0.20995117
0.22478502
0.24022999
0.25627317
0.27289816
0.29008505
0.30781040
0.32604729
0.34476543
0.36393123
0.38350798
0.40345605
0.42373307
0.44429426
0.46509266
0.48607951
0.50720457
0.52841650
0.54966328
0.57089260
0.59205232
0.61309087
0.63395772
0.65460384
0.67498205
0.69504753
0.71475817
0.73407497
0.75296233
0.77138838
0.78932519
0.80674891
0.82363981
0.83998223
0.85576437
0.87097794
0.88561761
0.89968032
0.91316420
0.92606732
0.93838566
0.95011023
0.96122222
0.97168499
0.98143018
0.99033425
0.99818109
1.00461504
1.00913158
1.01127015
1.01126299
1.00987945
1.00805200
1.00653188
1.00571069
1.00563667
1.00612366
1.00698206
1.00759354
1.00470365
0.98407183
0.90824130
0.77360682
0.63754702
0.52345138
0.43212725
0.35932061
0.30077074
0.25316395
0.21404860
0.18161721
0.15452084
0.13173679
0.11247723
0.09612639
0.08219651
0.07029654
0.06010948
0.05137564
0.04388036
0.03744457
0.03191782
0.02717274
0.02310092
0.01960962
0.01661911
0.01406068
0.01187495
0.01001047
0.00842268
0.00707289
0.00592757
0.00495761
0.00413782
0.00344636
0.00286438
0.00237559
0.00196597
0.00162345
0.00133768
0.00109979
0.00090222
0.00073851
0.00060316
0.00049152
0.00039965
0.00032423
0.00026245
0.00021197
0.00017081
0.00013734
0.00011018
0.00008819
0.00007043
0.00005612
0.00004462
0.00003540
0.00002802
0.00002212
0.00001743
0.00001371
0.00001075
0.00000841
0.00000657
0.00000512
0.00000398
0.00000309
0.00000239
0.00000185
0.00000142
0.00000109
0.00000084
0.00000064
0.00000049
0.00000037
0.00000028
0.00000022
0.00000016
0.00000012
0.00000009
0.00000007
0.00000005
0.00000004
0.00000003
0.00000002
0.00000002
0.00000001
0.00000001
0.00000001
0.00000000
0.00000000
0.00000000
0.00000000
0.00000000
0.00000000
0.00000000
0.00000000
0.00000000
0.00000000
0.00000000
0.00000000
0.00000000
0.00000000
0.00000000
0.00000000
0.00000000
0.00000000
0.00000000
0.00000000
0.00000000
0.00000000
0.00000000
0.00000000
0.00000000
0.00000000
0.00000000
0.00000000
0.00000000
0.00000000
0.00000000
0.00000000
0.00000000
0.00000000
0.00000000
0.00000000
0.00000000
0.00000000
0.00000000
0.00000000
0.00000000
0.00000000
0.00000000
0.00000000
0.00000000
0.00000000
0.00000000
0.00000000
0.00000000
0.00000000
0.00000000
0.00000000
0.00000000
0.00000000
0.00000000
0.00000000
0.00000000
0.00000000
0.00000000
0.00000000
0.00000000
0.00000000
0.00000000
0.00000000
0.00000000
0.00000000
0.00000000
0.00000000
0.00000000
0.00000000
0.00000000
0.00000000
0.00000000
0.00000000
0.00000000
0.00000000
0.00000000
0.00000000
0.00000000
0.00000000
0.00000000
0.00000000
0.00000000
0.00000000
0.00000000
0.00000000
0.00000000
0.00000000
0.00000000
0.00000000
0.00000000
0.00000000
0.00000000
0.00000000
0.00000000
0.00000000
0.00000000
0.00000000
0.00000000
0.00000000
0.00000000
0.00000000
0.00000000
0.00000000
0.00000000
0.00000000
0.00000000
0.00000000
0.00000000
0.00000000
0.00000000
0.00000000
0.00000000
0.00000000
0.00000000
0.00000000
0.00000000
0.00000000
0.00000000
0.00000000
0.00000000
0.00000000
0.00000000
0.00000000
0.00000000
0.00000000
0.00000000
0.00000000
0.00000000
0.00000000
0.00000000
0.00000000
0.00000000
0.00000000
0.00000000
0.00000000
0.00000000
0.00000000
0.00000000
0.00000000
0.00000000
0.00000000
0.00000000
0.00000000
0.00000000
0.00000000
0.00000000
0.00000000
0.00000000
0.00000000
0.00000000
0.00000000
0.00000000
0.00000000
0.00000000
0.00000000
0.00000000
0.00000000
0.00000000
0.00000000
0.00000000
0.00000000
0.00000000
0.00000000
0.00000000
0.00000000
0.00000000
0.00000000
0.00000194
0.00000205
0.00000226
0.00000260
0.00000306
0.00000368
0.00000448
0.00000550
0.00000677
0.00000836
0.00001032
0.00001273
0.00001568
0.00001930
0.00002370
0.00002906
0.00003555
0.00004341
0.00005290
0.00006433
0.00007807
0.00009453
0.00011424
0.00013775
0.00016576
0.00019904
0.00023850
0.00028517
0.00034027
0.00040516
0.00048141
0.00057080
0.00067538
0.00079744
0.00093959
0.00110476
0.00129625
0.00151776
0.00177342
0.00206783
0.00240610
0.00279390
0.00323746
0.00374367
0.00432008
0.00497494
0.00571726
0.00655681
0.00750419
0.00857084
0.00976906
0.01111203
0.01261384
0.01428947
0.01615480
0.01822661
0.02052254
0.02306104
0.02586139
0.02894355
0.03232818
0.03603650
0.04009020
0.04451133
0.04932219
0.05454517
0.06020258
0.06631653
0.07290868
0.08000011
0.08761108
0.09576084
0.10446738
0.11374723
0.12361525
0.13408437
0.14516538
0.15686675
0.16919435
0.18215134
0.19573791
0.20995118
0.22478503
0.24023000
0.25627318
0.27289817
0.29008507
0.30781042
0.32604731
0.34476546
0.36393126
0.38350801
0.40345608
0.42373310
0.44429428
0.46509268
0.48607952
0.50720455
0.52841644
0.54966317
0.57089241
0.59205202
0.61309042
0.63395707
0.65460290
0.67498074
0.69504571
0.71475565
0.73407149
0.75295753
0.77138177
0.78931606
0.80673628
0.82362234
0.83995807
0.85573100
0.87093192
0.88555429
0.89959337
0.91304499
0.92590389
0.93816121
0.94980076
0.96079310
0.97108638
0.98059242
0.98916765
0.99659201
1.00256081
1.00672995
1.00887713
1.00918093
1.00822080
1.00676791
1.00553457
1.00496616
1.00525135
1.00638757
1.00831463
1.01056995
1.01056448
0.99650418
0.93111292
0.79373284
0.64950406
0.52948140
0.43485646
0.36038666
0.30105583
0.25311382
0.21387913
0.18142676
0.15434968
0.13159747
0.11237005
0.09604689
0.08213905
0.07025583
0.06008108
0.05135610
0.04386707
0.03743563
0.03191186
0.02716881
0.02309837
0.01960797
0.01661806
0.01406003
0.01187454
0.01001023
0.00842254
0.00707281
0.00592753
0.00495759
0.00413781
0.00344636
0.00286438
0.00237559
0.00196597
0.00162345
0.00133768
0.00109980
0.00090222
0.00073851
0.00060316
0.00049152
0.00039965
0.00032423
0.00026245
0.00021197
0.00017082
0.00013734
0.00011018
0.00008819
0.00007043
0.00005612
0.00004462
0.00003540
0.00002802
0.00002212
0.00001743
0.00001371
0.00001075
0.00000841
0.00000657
0.00000512
0.00000398
0.00000309
0.00000239
0.00000185
0.00000142
0.00000109
0.00000084
0.00000064
0.00000049
0.00000037
0.00000028
0.00000022
0.00000016
0.00000012
0.00000009
0.00000007
0.00000005
0.00000004
0.00000003
0.00000002
0.00000002
0.00000001
0.00000001
0.00000001
0.00000000
0.00000000
0.00000000
0.00000000
0.00000000
0.00000000
0.00000000
0.00000000
0.00000000
0.00000000
0.00000000
0.00000000
0.00000000
0.00000000
0.00000000
0.00000000
0.00000000
0.00000000
0.00000000
0.00000000
0.00000000
0.00000000
0.00000000
0.00000000
0.00000000
0.00000000
0.00000000
0.00000000
0.00000000
0.00000000
0.00000000
0.00000000
0.00000000
0.00000000
0.00000000
0.00000000
0.00000000
0.00000000
0.00000000
0.00000000
0.00000000
0.00000000
0.00000000
0.00000000
0.00000000
0.00000000
0.00000000
0.00000000
0.00000000
0.00000000
0.00000000
0.00000000
0.00000000
0.00000000
0.00000000
0.00000000
0.00000000
0.00000000
0.00000000
0.00000000
0.00000000
0.00000000
0.00000000
0.00000000
0.00000000
0.00000000
0.00000000
0.00000000
0.00000000
0.00000000
0.00000000
0.00000000
0.00000000
0.00000000
0.00000000
0.00000000
0.00000000
0.00000000
0.00000000
0.00000000
0.00000000
0.00000000
0.00000000
0.00000000
0.00000000
0.00000000
0.00000000
0.00000000
0.00000000
0.00000000
0.00000000
0.00000000
0.00000000
0.00000000
0.00000000
0.00000000
0.00000000
0.00000000
0.00000000
0.00000000
0.00000000
0.00000000
0.00000000
0.00000000
0.00000000
0.00000000
0.00000000
0.00000000
0.00000000
0.00000000
0.00000000
0.00000000
0.00000000
0.00000000
0.00000000
0.00000000
0.00000000
0.00000000
0.00000000
0.00000000
0.00000000
0.00000000
0.00000000
0.00000000
0.00000000
0.00000000
0.00000000
0.00000000
0.00000000
0.00000000
0.00000000
0.00000000
0.00000000
0.00000000
0.00000000
0.00000000
0.00000000
0.00000000
0.00000000
0.00000000
0.00000000
0.00000000
0.00000000
0.00000000
0.00000000
0.00000000
0.00000000
0.00000000
0.00000000
0.00000000
0.00000000
0.00000000
0.00000000
0.00000000
0.00000000
0.00000000
0.00000000
0.00000000
0.00000000
0.00000000
0.00000000
0.00000000
0.00000000
0.00000000
0.00000000
0.00000000
0.00000000
0.00000000
0.00000194
0.00000205
0.00000226
0.00000260
0.00000306
0.00000368
0.00000448
0.00000550
0.00000677
0.00000836
0.00001032
0.00001273
0.00001568
0.00001930
0.00002370
0.00002906
0.00003555
0.00004341
0.00005290
0.00006433
0.00007807
0.00009453
0.00011424
0.00013775
0.00016576
0.00019904
0.00023850
0.00028517
0.00034027
0.00040516
0.00048141
0.00057080
0.00067538
0.00079744
0.00093959
0.00110476
0.00129625
0.00151776
0.00177342
0.00206783
0.00240610
0.00279390
0.00323746
0.00374367
0.00432008
0.00497494
0.00571726
0.00655681
0.00750419
0.00857084
0.00976906
0.01111203
0.01261384
0.01428947
0.01615480
0.01822661
0.02052254
0.02306104
0.02586139
0.02894355
0.03232818
0.03603650
0.04009020
0.04451133
0.04932219
0.05454517
0.06020258
0.06631653
0.07290868
0.08000011
0.08761108
0.09576084
0.10446738
0.11374723
0.12361525
0.13408437
0.14516539
0.15686675
0.16919436
0.18215134
0.19573791
0.20995118
0.22478504
0.24023001
0.25627319
0.27289819
0.29008509
0.30781044
0.32604735
0.34476549
0.36393130
0.38350806
0.40345613
0.42373316
0.44429435
0.46509274
0.48607957
0.50720459
0.52841646
0.54966314
0.57089232
0.59205184
0.61309011
0.63395658
0.65460216
0.67497965
0.69504414
0.71475344
0.73406838
0.75295320
0.77137575
0.78930772
0.80672477
0.82360649
0.83993635
0.85570140
0.87089188
0.88550060
0.89952210
0.91295148
0.92578272
0.93800633
0.94960561
0.96055094
0.97079076
0.98023803
0.98875167
0.99611591
1.00203033
1.00614618
1.00821147
1.00833797
1.00710927
1.00540029
1.00402637
1.00349870
1.00400593
1.00550578
1.00787263
1.01056628
1.01076800
0.99608429
0.92909211
0.79059496
0.64671437
0.52718649
0.43303252
0.35897104
0.29997930
0.25230962
0.21328791
0.18099830
0.15404313
0.13138066
0.11221831
0.09594172
0.08206682
0.07020665
0.06004787
0.05133387
0.04385231
0.03742593
0.03190554
0.02716473
0.02309577
0.01960634
0.01661705
0.01405942
0.01187418
0.01001003
0.00842243
0.00707276
0.00592751
0.00495759
0.00413782
0.00344637
0.00286439
0.00237560
0.00196598
0.00162346
0.00133769
0.00109980
0.00090223
0.00073851
0.00060316
0.00049152
0.00039965
0.00032423
0.00026245
0.00021197
0.00017082
0.00013734
0.00011018
0.00008819
0.00007043
0.00005612
0.00004462
0.00003540
0.00002802
0.00002212
0.00001743
0.00001371
0.00001075
0.00000841
0.00000657
0.00000512
0.00000398
0.00000309
0.00000239
0.00000185
0.00000142
0.00000109
0.00000084
0.00000064
0.00000049
0.00000037
0.00000028
0.00000022
0.00000016
0.00000012
0.00000009
0.00000007
0.00000005
0.00000004
0.00000003
0.00000002
0.00000002
0.00000001
0.00000001
0.00000001
0.00000000
0.00000000
0.00000000
0.00000000
0.00000000
0.00000000
0.00000000
0.00000000
0.00000000
0.00000000
0.00000000
0.00000000
0.00000000
0.00000000
0.00000000
0.00000000
0.00000000
0.00000000
0.00000000
0.00000000
0.00000000
0.00000000
0.00000000
0.00000000
0.00000000
0.00000000
0.00000000
0.00000000
0.00000000
0.00000000
0.00000000
0.00000000
0.00000000
0.00000000
0.00000000
0.00000000
0.00000000
0.00000000
0.00000000
0.00000000
0.00000000
0.00000000
0.00000000
0.00000000
0.00000000
0.00000000
0.00000000
0.00000000
0.00000000
0.00000000
0.00000000
0.00000000
0.00000000
0.00000000
0.00000000
0.00000000
0.00000000
0.00000000
0.00000000
0.00000000
0.00000000
0.00000000
0.00000000
0.00000000
0.00000000
0.00000000
0.00000000
0.00000000
0.00000000
0.00000000
0.00000000
0.00000000
0.00000000
0.00000000
0.00000000
0.00000000
0.00000000
0.00000000
0.00000000
0.00000000
0.00000000
0.00000000
0.00000000
0.00000000
0.00000000
0.00000000
0.00000000
0.00000000
0.00000000
0.00000000
0.00000000