# vtk DataFile Version 3.0
Concentration output
ASCII
DATASET STRUCTURED_POINTS
DIMENSIONS 398 98 1
ORIGIN 0 0 0
SPACING 0.03 0.03 1.0
POINT_DATA 39004
SCALARS Variable float 1
LOOKUP_TABLE default
0.00000000
0.00000000
0.00000000
0.00000000
0.00000000
0.00000000
0.00000000
0.00000000
0.00000000
0.00000000
0.00000000
0.00000000
0.00000000
0.00000000
0.00000000
0.00000001
0.00000001
0.00000001
0.00000002
0.00000003
0.00000004
0.00000006
0.00000008
0.00000011
0.00000016
0.00000023
0.00000033
0.00000046
0.00000065
0.00000091
0.00000127
0.00000176
0.00000244
0.00000335
0.00000459
0.00000626
0.00000851
0.00001151
0.00001551
0.00002080
0.00002779
0.00003696
0.00004897
0.00006459
0.00008486
0.00011101
0.00014461
0.00018759
0.00024234
0.00031177
0.00039940
0.00050954
0.00064735
0.00081902
0.00103190
0.00129472
0.00161774
0.00201299
0.00249446
0.00307834
0.00378324
0.00463043
0.00564407
0.00685143
0.00828308
0.00997304
0.01195897
0.01428219
0.01698774
0.02012433
0.02374423
0.02790305
0.03265940
0.03807454
0.04421179
0.05113591
0.05891233
0.06760630
0.07728188
0.08800089
0.09982173
0.11279818
0.12697813
0.14240228
0.15910293
0.17710271
0.19641345
0.21703515
0.23895507
0.26214703
0.28657086
0.31217210
0.33888192
0.36661737
0.39528177
0.42476543
0.45494666
0.48569292
0.51686231
0.54830510
0.57986557
0.61138389
0.64269807
0.67364602
0.70406755
0.73380637
0.76271205
0.79064189
0.81746264
0.84305221
0.86730107
0.89011348
0.91140830
0.93111939
0.94919556
0.96560074
0.98031552
0.99334262
1.00471900
1.01453216
1.02290757
1.02978538
1.03339149
1.02244424
0.95693905
0.86341483
0.76341052
0.66654973
0.57681201
0.49567007
0.42336641
0.35960477
0.30383876
0.25541117
0.21362757
0.17779584
0.14724830
0.12135466
0.09952929
0.08123506
0.06598479
0.05334105
0.04291474
0.03436281
0.02738537
0.02172234
0.01714997
0.01347719
0.01054205
0.00820826
0.00636192
0.00490846
0.00376992
0.00288243
0.00219399
0.00166253
0.00125421
0.00094198
0.00070437
0.00052438
0.00038868
0.00028684
0.00021077
0.00015420
0.00011233
0.00008147
0.00005884
0.00004231
0.00003030
0.00002160
0.00001534
0.00001085
0.00000764
0.00000535
0.00000374
0.00000260
0.00000180
0.00000124
0.00000085
0.00000058
0.00000040
0.00000027
0.00000018
0.00000012
0.00000008
0.00000005
0.00000004
0.00000002
0.00000002
0.00000001
0.00000001
0.00000000
0.00000000
0.00000000
0.00000000
0.00000000
0.00000000
0.00000000
0.00000000
0.00000000
0.00000000
0.00000000
0.00000000
0.00000000
0.00000000
0.00000000
0.00000000
0.00000000
0.00000000
0.00000000
0.00000000
0.00000000
0.00000000
0.00000000
0.00000000
0.00000000
0.00000000
0.00000000
0.00000000
0.00000000
0.00000000
0.00000000
0.00000000
0.00000000
0.00000000
0.00000000
0.00000000
0.00000000
0.00000000
0.00000000
0.00000000
0.00000000
0.00000000
0.00000000
0.00000000
0.00000000
0.00000000
0.00000000
0.00000000
0.00000000
0.00000000
0.00000000
0.00000000
0.00000000
0.00000000
0.00000000
0.00000000
0.00000000
0.00000000
0.00000000
0.00000000
0.00000000
0.00000000
0.00000000
0.00000000
0.00000000
0.00000000
0.00000000
0.00000000
0.00000000
0.00000000
0.00000000
0.00000000
0.00000000
0.00000000
0.00000000
0.00000000
0.00000000
0.00000000
0.00000000
0.00000000
0.00000000
0.00000000
0.00000000
0.00000000
0.00000000
0.00000000
0.00000000
0.00000000
0.00000000
0.00000000
0.00000000
0.00000000
0.00000000
0.00000000
0.00000000
0.00000000
0.00000000
0.00000000
0.00000000
0.00000000
0.00000000
0.00000000
0.00000000
0.00000000
0.00000000
0.00000000
0.00000000
0.00000000
0.00000000
0.00000000
0.00000000
0.00000000
0.00000000
0.00000000
0.00000000
0.00000000
0.00000000
0.00000000
0.00000000
0.00000000
0.00000000
0.00000000
0.00000000
0.00000000
0.00000000
0.00000000
0.00000000
0.00000000
0.00000000
0.00000000
0.00000000
0.00000000
0.00000000
0.00000000
0.00000000
0.00000000
0.00000000
0.00000000
0.00000000
0.00000000
0.00000000
0.00000000
0.00000000
0.00000000
0.00000000
0.00000000
0.00000000
0.00000000
0.00000000
0.00000000
0.00000000
0.00000000
0.00000000
0.00000000
0.00000000
0.00000000
0.00000000
0.00000000
0.00000000
0.00000000
0.00000000
0.00000000
0.00000000
0.00000000
0.00000000
0.00000000
0.00000000
0.00000000
0.00000000
0.00000000
0.00000000
0.00000000
0.00000000
0.00000000
0.00000000
0.00000000
0.00000000
0.00000000
0.00000000
0.00000000
0.00000000
0.00000000
0.00000000
0.00000000
0.00000000
0.00000000
0.00000000
0.00000000
0.00000000
0.00000000
0.00000000
0.00000000
0.00000000
0.00000000
0.00000000
0.00000000
0.00000000
0.00000000
0.00000000
0.00000000
0.00000000
0.00000000
0.00000000
0.00000000
0.00000000
0.00000000
0.00000000
0.00000000
0.00000000
0.00000000
0.00000000
0.00000000
0.00000000
0.00000000
0.00000000
0.00000000
0.00000000
0.00000000
0.00000000
0.00000000
0.00000000
0.00000000
0.00000001
0.00000001
0.00000001
0.00000002
0.00000003
0.00000004
0.00000006
0.00000008
0.00000011
0.00000016
0.00000023
0.00000033
0.00000046
0.00000065
0.00000091
0.00000127
0.00000176
0.00000244
0.00000335
0.00000459
0.00000626
0.00000851
0.00001151
0.00001551
0.00002080
0.00002779
0.00003696
0.00004897
0.00006459
0.00008486
0.00011101
0.00014461
0.00018759
0.00024234
0.00031177
0.00039940
0.00050954
0.00064735
0.00081902
0.00103190
0.00129472
0.00161774
0.00201299
0.00249446
0.00307834
0.00378324
0.00463043
0.00564407
0.00685143
0.00828308
0.00997304
0.01195897
0.01428219
0.01698774
0.02012433
0.02374423
0.02790305
0.03265940
0.03807454
0.04421179
0.05113591
0.05891233
0.06760630
0.07728188
0.08800089
0.09982173
0.11279818
0.12697813
0.14240228
0.15910293
0.17710271
0.19641344
0.21703514
0.23895506
0.26214703
0.28657085
0.31217208
0.33888191
0.36661736
0.39528175
0.42476541
0.45494663
0.48569289
0.51686227
0.54830505
0.57986552
0.61138383
0.64269801
0.67364595
0.70406746
0.73380627
0.76271192
0.79064171
0.81746239
0.84305180
0.86730037
0.89011224
0.91140616
0.93111582
0.94918991
0.96559237
0.98030401
0.99332763
1.00469880
1.01449939
1.02283983
1.02961980
1.03313090
1.02316117
0.96227132
0.86865800
0.76708265
0.66878374
0.57810735
0.49640048
0.42377005
0.35982625
0.30395959
0.25547689
0.21366333
0.17781529
0.14725888
0.12136041
0.09953242
0.08123676
0.06598571
0.05334155
0.04291501
0.03436296
0.02738544
0.02172238
0.01714999
0.01347720
0.01054206
0.00820827
0.00636192
0.00490846
0.00376992
0.00288244
0.00219399
0.00166253
0.00125421
0.00094198
0.00070437
0.00052438
0.00038868
0.00028684
0.00021077
0.00015420
0.00011233
0.00008147
0.00005884
0.00004231
0.00003030
0.00002160
0.00001534
0.00001085
0.00000764
0.00000535
0.00000374
0.00000260
0.00000180
0.00000124
0.00000085
0.00000058
0.00000040
0.00000027
0.00000018
0.00000012
0.00000008
0.00000005
0.00000004
0.00000002
0.00000002
0.00000001
0.00000001
0.00000000
0.00000000
0.00000000
0.00000000
0.00000000
0.00000000
0.00000000
0.00000000
0.00000000
0.00000000
0.00000000
0.00000000
0.00000000
0.00000000
0.00000000
0.00000000
0.00000000
0.00000000
0.00000000
0.00000000
0.00000000
0.00000000
0.00000000
0.00000000
0.00000000
0.00000000
0.00000000
0.00000000
0.00000000
0.00000000
0.00000000
0.00000000
0.00000000
0.00000000
0.00000000
0.00000000
0.00000000
0.00000000
0.00000000
0.00000000
0.00000000
0.00000000
0.00000000
0.00000000
0.00000000
0.00000000
0.00000000
0.00000000
0.00000000
0.00000000
0.00000000
0.00000000
0.00000000
0.00000000
0.00000000
0.00000000
0.00000000
0.00000000
0.00000000
0.00000000
0.00000000
0.00000000
0.00000000
0.00000000
0.00000000
0.00000000
0.00000000
0.00000000
0.00000000
0.00000000
0.00000000
0.00000000
0.00000000
0.00000000
0.00000000
0.00000000
0.00000000
0.00000000
0.00000000
0.00000000
0.00000000
0.00000000
0.00000000
0.00000000
0.00000000
0.00000000
0.00000000
0.00000000
0.00000000
0.00000000
0.00000000
0.00000000
0.00000000
0.00000000
0.00000000
0.00000000
0.00000000
0.00000000
0.00000000
0.00000000
0.00000000
0.00000000
0.00000000
0.00000000
0.00000000
0.00000000
0.00000000
0.00000000
0.00000000
0.00000000
0.00000000
0.00000000
0.00000000
0.00000000
0.00000000
0.00000000
0.00000000
0.00000000
0.00000000
0.00000000
0.00000000
0.00000000
0.00000000
0.00000000
0.00000000
0.00000000
0.00000000
0.00000000
0.00000000
0.00000000
0.00000000
0.00000000
0.00000000
0.00000000
0.00000000
0.00000000
0.00000000
0.00000000
0.00000000
0.00000000
0.00000000
0.00000000
0.00000000
0.00000000
0.00000000
0.00000000
0.00000000
0.00000000
0.00000000
0.00000000
0.00000000
0.00000000
0.00000000
0.00000000
0.00000000
0.00000000
0.00000000
0.00000000
0.00000000
0.00000000
0.00000000
0.00000000
0.00000000
0.00000000
0.00000000
0.00000000
0.00000000
0.00000000
0.00000000
0.00000000
0.00000000
0.00000000
0.00000000
0.00000000
0.00000000
0.00000000
0.00000000
0.00000000
0.00000000
0.00000000
0.00000000
0.00000000
0.00000000
0.00000000
0.00000000
0.00000000
0.00000000
0.00000000
0.00000000
0.00000000
0.00000000
0.00000000
0.00000000
0.00000000
0.00000000
0.00000000
0.00000000
0.00000000
0.00000000
0.00000000
0.00000000
0.00000000
0.00000000
0.00000000
0.00000000
0.00000000
0.00000000
0.00000000
0.00000000
0.00000000
0.00000000
0.00000000
0.00000000
0.00000000
0.00000000
0.00000000
0.00000000
0.00000000
0.00000000
0.00000000
0.00000000
0.00000000
0.00000001
0.00000001
0.00000001
0.00000002
0.00000003
0.00000004
0.00000006
0.00000008
0.00000011
0.00000016
0.00000023
0.00000033
0.00000046
0.00000065
0.00000091
0.00000127
0.00000176
0.00000244
0.00000335
0.00000459
0.00000626
0.00000851
0.00001151
0.00001551
0.00002080
0.00002779
0.00003696
0.00004897
0.00006459
0.00008486
0.00011101
0.00014461
0.00018759
0.00024234
0.00031177
0.00039940
0.00050954
0.00064735
0.00081902
0.00103190
0.00129472
0.00161774
0.00201299
0.00249447
0.00307834
0.00378324
0.00463043
0.00564407
0.00685143
0.00828308
0.00997304
0.01195897
0.01428219
0.01698774
0.02012433
0.02374423
0.02790305
0.03265940
0.03807454
0.04421179
0.05113591
0.05891233
0.06760630
0.07728188
0.08800089
0.09982173
0.11279818
0.12697812
0.14240228
0.15910292
0.17710270
0.19641344
0.21703513
0.23895505
0.26214701
0.28657083
0.31217206
0.33888188
0.36661732
0.39528171
0.42476536
0.45494657
0.48569283
0.51686219
0.54830497
0.57986542
0.61138372
0.64269788
0.67364580
0.70406730
0.73380607
0.76271168
0.79064140
0.81746193
0.84305108
0.86729915
0.89011013
0.91140252
0.93110977
0.94918038
0.96557837
0.98028489
0.99330271
1.00466412
1.01443670
1.02268975
1.02924446
1.03237651
1.02314294
0.97065220
0.87763194
0.77342289
0.67265117
0.58034166
0.49764923
0.42446115
0.36020502
0.30416640
0.25558957
0.21372465
0.17784865
0.14727703
0.12137029
0.09953779
0.08123968
0.06598730
0.05334241
0.04291547
0.03436321
0.02738558
0.02172245
0.01715003
0.01347722
0.01054207
0.00820827
0.00636192
0.00490846
0.00376992
0.00288244
0.00219400
0.00166253
0.00125421
0.00094199
0.00070437
0.00052438
0.00038868
0.00028684
0.00021077
0.00015420
0.00011233
0.00008147
0.00005884
0.00004231
0.00003030
0.00002160
0.00001534
0.00001085
0.00000764
0.00000535
0.00000374
0.00000260
0.00000180
0.00000124
0.00000085
0.00000058
0.00000040
0.00000027
0.00000018
0.00000012
0.00000008
0.00000005
0.00000004
0.00000002
0.00000002
0.00000001
0.00000001
0.00000000
0.00000000
0.00000000
0.00000000
0.00000000
0.00000000
0.00000000
0.00000000
0.00000000
0.00000000
0.00000000
0.00000000
0.00000000
0.00000000
0.00000000
0.00000000
0.00000000
0.00000000
0.00000000
0.00000000
0.00000000
0.00000000
0.00000000
0.00000000
0.00000000
0.00000000
0.00000000
0.00000000
0.00000000
0.00000000
0.00000000
0.00000000
0.00000000
0.00000000
0.00000000
0.00000000
0.00000000
0.00000000
0.00000000
0.00000000
0.00000000
0.00000000
0.00000000
0.00000000
0.00000000
0.00000000
0.00000000
0.00000000
0.00000000
0.00000000
0.00000000
0.00000000
0.00000000
0.00000000
0.00000000
0.00000000
0.00000000
0.00000000
0.00000000
0.00000000
0.00000000
0.00000000
0.00000000
0.00000000
0.00000000
0.00000000
0.00000000
0.00000000
0.00000000
0.00000000
0.00000000
0.00000000
0.00000000
0.00000000
0.00000000
0.00000000
0.00000000
0.00000000
0.00000000
0.00000000
0.00000000
0.00000000
0.00000000
0.00000000
0.00000000
0.00000000
0.00000000
0.00000000
0.00000000
0.00000000
0.00000000
0.00000000
0.00000000
0.00000000
0.00000000
0.00000000
0.00000000
0.00000000
0.00000000
0.00000000
0.00000000
0.00000000
0.00000000
0.00000000
0.00000000
0.00000000
0.00000000
0.00000000
0.00000000
0.00000000
0.00000000
0.00000000
0.00000000
0.00000000
0.00000000
0.00000000
0.00000000
0.00000000
0.00000000
0.00000000
0.00000000
0.00000000
0.00000000
0.00000000
0.00000000
0.00000000
0.00000000
0.00000000
0.00000000
0.00000000
0.00000000
0.00000000
0.00000000
0.00000000
0.00000000
0.00000000
0.00000000
0.00000000
0.00000000
0.00000000
0.00000000
0.00000000
0.00000000
0.00000000
0.00000000
0.00000000
0.00000000
0.00000000
0.00000000
0.00000000
0.00000000
0.00000000
0.00000000
0.00000000
0.00000000
0.00000000
0.00000000
0.00000000
0.00000000
0.00000000
0.00000000
0.00000000
0.00000000
0.00000000
0.00000000
0.00000000
0.00000000
0.00000000
0.00000000
0.00000000
0.00000000
0.00000000
0.00000000
0.00000000
0.00000000
0.00000000
0.00000000
0.00000000
0.00000000
0.00000000
0.00000000
0.00000000
0.00000000
0.00000000
0.00000000
0.00000000
0.00000000
0.00000000
0.00000000
0.00000000
0.00000000
0.00000000
0.00000000
0.00000000
0.00000000
0.00000000
0.00000000
0.00000000
0.00000000
0.00000000
0.00000000
0.00000000
0.00000000
0.00000000
0.00000000
0.00000000
0.00000000
0.00000000
0.00000000
0.00000000
0.00000000
0.00000000
0.00000000
0.00000000
0.00000000
0.00000000
0.00000000
0.00000000
0.00000000
0.00000000
0.00000000
0.00000000
0.00000001
0.00000001
0.00000001
0.00000002
0.00000003
0.00000004
0.00000006
0.00000008
0.00000011
0.00000016
0.00000023
0.00000033
0.00000046
0.00000065
0.00000091
0.00000127
0.00000176
0.00000244
0.00000335
0.00000459
0.00000626
0.00000851
0.00001151
0.00001551
0.00002080
0.00002779
0.00003696
0.00004897
0.00006459
0.00008486
0.00011101
0.00014461
0.00018759
0.00024234
0.00031177
0.00039940
0.00050954
0.00064736
0.00081902
0.00103190
0.00129472
0.00161774
0.00201299
0.00249447
0.00307834
0.00378324
0.00463043
0.00564407
0.00685143
0.00828308
0.00997305
0.01195897
0.01428219
0.01698774
0.02012433
0.02374423
0.02790305
0.03265940
0.03807455
0.04421179
0.05113591
0.05891233
0.06760630
0.07728188
0.08800089
0.09982173
0.11279818
0.12697812
0.14240227
0.15910292
0.17710269
0.19641342
0.21703512
0.23895503
0.26214699
0.28657080
0.31217202
0.33888184
0.36661727
0.39528165
0.42476529
0.45494649
0.48569273
0.51686209
0.54830484
0.57986528
0.61138356
0.64269770
0.67364560
0.70406706
0.73380580
0.76271136
0.79064098
0.81746135
0.84305020
0.86729771
0.89010770
0.91139841
0.93110300
0.94916984
0.96556311
0.98026454
0.99327705
1.00462905
1.01437009
1.02251964
1.02880575
1.03154374
1.02337198
0.97940334
0.88748612
0.78049767
0.67700605
0.58284605
0.49905597
0.42523791
0.36063160
0.30439973
0.25571687
0.21379402
0.17788641
0.14729758
0.12138146
0.09954386
0.08124297
0.06598908
0.05334337
0.04291599
0.03436348
0.02738573
0.02172253
0.01715007
0.01347724
0.01054208
0.00820828
0.00636193
0.00490846
0.00376993
0.00288244
0.00219400
0.00166253
0.00125421
0.00094199
0.00070437
0.00052438
0.00038868
0.00028684
0.00021077
0.00015420
0.00011233
0.00008147
0.00005884
0.00004231
0.00003030
0.00002160
0.00001534
0.00001085
0.00000764
0.00000535
0.00000374
0.00000260
0.00000180
0.00000124
0.00000085
0.00000058
0.00000040
0.00000027
0.00000018
0.00000012
0.00000008
0.00000005
0.00000004
0.00000002
0.00000002
0.00000001
0.00000001
0.00000000
0.00000000
0.00000000
0.00000000
0.00000000
0.00000000
0.00000000
0.00000000
0.00000000
0.00000000
0.00000000
0.00000000
0.00000000
0.00000000
0.00000000
0.00000000
0.00000000
0.00000000
0.00000000
0.00000000
0.00000000
0.00000000
0.00000000
0.00000000
0.00000000
0.00000000
0.00000000
0.00000000
0.00000000
0.00000000
0.00000000
0.00000000
0.00000000
0.00000000
0.00000000
0.00000000
0.00000000
0.00000000
0.00000000
0.00000000
0.00000000
0.00000000
0.00000000
0.00000000
0.00000000
0.00000000
0.00000000
0.00000000
0.00000000
0.00000000
0.00000000
0.00000000
0.00000000
0.00000000
0.00000000
0.00000000
0.00000000
0.00000000
0.00000000
0.00000000
0.00000000
0.00000000
0.00000000
0.00000000
0.00000000
0.00000000
0.00000000
0.00000000
0.00000000
0.00000000
0.00000000
0.00000000
0.00000000
0.00000000
0.00000000
0.00000000
0.00000000
0.00000000
0.00000000
0.00000000
0.00000000
0.00000000
0.00000000
0.00000000
0.00000000
0.00000000
0.00000000
0.00000000
0.00000000
0.00000000
0.00000000
0.00000000
0.00000000
0.00000000
0.00000000
0.00000000
0.00000000
0.00000000
0.00000000
0.00000000
0.00000000
0.00000000
0.00000000
0.00000000
0.00000000
0.00000000
0.00000000
0.00000000
0.00000000
0.00000000
0.00000000
0.00000000
0.00000000
0.00000000
0.00000000
0.00000000
0.00000000
0.00000000
0.00000000
0.00000000
0.00000000
0.00000000
0.00000000
0.00000000
0.00000000
0.00000000
0.00000000
0.00000000
0.00000000
0.00000000
0.00000000
0.00000000
0.00000000
0.00000000
0.00000000
0.00000000
0.00000000
0.00000000
0.00000000
0.00000000
0.00000000
0.00000000
0.00000000
0.00000000
0.00000000
0.00000000
0.00000000
0.00000000
0.00000000
0.00000000
0.00000000
0.00000000
0.00000000
0.00000000
0.00000000
0.00000000
0.00000000
0.00000000
0.00000000
0.00000000
0.00000000
0.00000000
0.00000000
0.00000000
0.00000000
0.00000000
0.00000000
0.00000000
0.00000000
0.00000000
0.00000000
0.00000000
0.00000000
0.00000000
0.00000000
0.00000000
0.00000000
0.00000000
0.00000000
0.00000000
0.00000000
0.00000000
0.00000000
0.00000000
0.00000000
0.00000000
0.00000000
0.00000000
0.00000000
0.00000000
0.00000000
0.00000000
0.00000000
0.00000000
0.00000000
0.00000000
0.00000000
0.00000000
0.00000000
0.00000000
0.00000000
0.00000000
0.00000000
0.00000000
0.00000000
0.00000000
0.00000000
0.00000000
0.00000000
0.00000000
0.00000000
0.00000000
0.00000000
0.00000000
0.00000000
0.00000000
0.00000000
0.00000000
0.00000000
0.00000000
0.00000000
0.00000000
0.00000001
0.00000001
0.00000001
0.00000002
0.00000003
0.00000004
0.00000006
0.00000008
0.00000011
0.00000016
0.00000023
0.00000033
0.00000046
0.00000065
0.00000091
0.00000127
0.00000176
0.00000244
0.00000335
0.00000459
0.00000626
0.00000851
0.00001151
0.00001551
0.00002080
0.00002779
0.00003696
0.00004897
0.00006459
0.00008486
0.00011101
0.00014461
0.00018759
0.00024234
0.00031177
0.00039940
0.00050955
0.00064736
0.00081902
0.00103190
0.00129472
0.00161774
0.00201299
0.00249447
0.00307834
0.00378324
0.00463043
0.00564407
0.00685143
0.00828308
0.00997305
0.01195898
0.01428219
0.01698774
0.02012433
0.02374424
0.02790305
0.03265941
0.03807455
0.04421180
0.05113591
0.05891233
0.06760630
0.07728188
0.08800089
0.09982173
0.11279818
0.12697812
0.14240227
0.15910291
0.17710268
0.19641341
0.21703510
0.23895501
0.26214696
0.28657077
0.31217198
0.33888178
0.36661721
0.39528157
0.42476520
0.45494639
0.48569261
0.51686195
0.54830469
0.57986511
0.61138336
0.64269748
0.67364535
0.70406678
0.73380547
0.76271098
0.79064052
0.81746075
0.84304934
0.86729639
0.89010555
0.91139486
0.93109727
0.94916111
0.96555088
0.98024928
0.99326041
1.00461169
1.01434297
1.02244305
1.02859605
1.03123015
1.02397900
0.98596669
0.89537809
0.78620435
0.68051709
0.58488481
0.50020123
0.42587465
0.36098302
0.30459277
0.25582251
0.21385169
0.17791782
0.14731464
0.12139070
0.09954885
0.08124566
0.06599052
0.05334413
0.04291639
0.03436370
0.02738584
0.02172259
0.01715010
0.01347726
0.01054209
0.00820828
0.00636193
0.00490846
0.00376993
0.00288244
0.00219400
0.00166253
0.00125421
0.00094199
0.00070437
0.00052438
0.00038868
0.00028684
0.00021077
0.00015420
0.00011233
0.00008147
0.00005884
0.00004231
0.00003030
0.00002160
0.00001534
0.00001085
0.00000764
0.00000535
0.00000374
0.00000260
0.00000180
0.00000124
0.00000085
0.00000058
0.00000040
0.00000027
0.00000018
0.00000012
0.00000008
0.00000005
0.00000004
0.00000002
0.00000002
0.00000001
0.00000001
0.00000000
0.00000000
0.00000000
0.00000000
0.00000000
0.00000000
0.00000000
0.00000000
0.00000000
0.00000000
0.00000000
0.00000000
0.00000000
0.00000000
0.00000000
0.00000000
0.00000000
0.00000000
0.00000000
0.00000000
0.00000000
0.00000000
0.00000000
0.00000000
0.00000000
0.00000000
0.00000000
0.00000000
0.00000000
0.00000000
0.00000000
0.00000000
0.00000000
0.00000000
0.00000000
0.00000000
0.00000000
0.00000000
0.00000000
0.00000000
0.00000000
0.00000000
0.00000000
0.00000000
0.00000000
0.00000000
0.00000000
0.00000000
0.00000000
0.00000000
0.00000000
0.00000000
0.00000000
0.00000000
0.00000000
0.00000000
0.00000000
0.00000000
0.00000000
0.00000000
0.00000000
0.00000000
0.00000000
0.00000000
0.00000000
0.00000000
0.00000000
0.00000000
0.00000000
0.00000000
0.00000000
0.00000000
0.00000000
0.00000000
0.00000000
0.00000000
0.00000000
0.00000000
0.00000000
0.00000000
0.00000000
0.00000000
0.00000000
0.00000000
0.00000000
0.00000000
0.00000000
0.00000000
0.00000000
0.00000000
0.00000000
0.00000000
0.00000000
0.00000000
0.00000000
0.00000000
0.00000000
0.00000000
0.00000000
0.00000000
0.00000000
0.00000000
0.00000000
0.00000000
0.00000000
0.00000000
0.00000000
0.00000000
0.00000000
0.00000000
0.00000000
0.00000000
0.00000000
0.00000000
0.00000000
0.00000000
0.00000000
0.00000000
0.00000000
0.00000000
0.00000000
0.00000000
0.00000000
0.00000000
0.00000000
0.00000000
0.00000000
0.00000000
0.00000000
0.00000000
0.00000000
0.00000000
0.00000000
0.00000000
0.00000000
0.00000000
0.00000000
0.00000000
0.00000000
0.00000000
0.00000000
0.00000000
0.00000000
0.00000000
0.00000000
0.00000000
0.00000000
0.00000000
0.00000000
0.00000000
0.00000000
0.00000000
0.00000000
0.00000000
0.00000000
0.00000000
0.00000000
0.00000000
0.00000000
0.00000000
0.00000000
0.00000000
0.00000000
0.00000000
0.00000000
0.00000000
0.00000000
0.00000000
0.00000000
0.00000000
0.00000000
0.00000000
0.00000000
0.00000000
0.00000000
0.00000000
0.00000000
0.00000000
0.00000000
0.00000000
0.00000000
0.00000000
0.00000000
0.00000000
0.00000000
0.00000000
0.00000000
0.00000000
0.00000000
0.00000000
0.00000000
0.00000000
0.00000000
0.00000000
0.00000000
0.00000000
0.00000000
0.00000000
0.00000000
0.00000000
0.00000000
0.00000000
0.00000000
0.00000000
0.00000000
0.00000000
0.00000000
0.00000000
0.00000000
0.00000000
0.00000000
0.00000000
0.00000000
0.00000000
0.00000000
0.00000000
0.00000000
0.00000000
0.00000000
0.00000000
0.00000000
0.00000000
0.00000001
0.00000001
0.00000001
0.00000002
0.00000003
0.00000004
0.00000006
0.00000008
0.00000011
0.00000016
0.00000023
0.00000033
0.00000046
0.00000065
0.00000091
0.00000127
0.00000176
0.00000244
0.00000335
0.00000459
0.00000626
0.00000851
0.00001151
0.00001551
0.00002080
0.00002779
0.00003696
0.00004897
0.00006459
0.00008486
0.00011101
0.00014461
0.00018759
0.00024234
0.00031177
0.00039940
0.00050955
0.00064736
0.00081902
0.00103190
0.00129472
0.00161774
0.00201299
0.00249447
0.00307834
0.00378324
0.00463043
0.00564407
0.00685143
0.00828308
0.00997305
0.01195898
0.01428219
0.01698774
0.02012434
0.02374424
0.02790305
0.03265941
0.03807455
0.04421180
0.05113592
0.05891234
0.06760631
0.07728189
0.08800089
0.09982173
0.11279818
0.12697812
0.14240226
0.15910290
0.17710267
0.19641339
0.21703508
0.23895498
0.26214692
0.28657072
0.31217193
0.33888172
0.36661713
0.39528148
0.42476509
0.45494627
0.48569247
0.51686179
0.54830451
0.57986490
0.61138313
0.64269722
0.67364506
0.70406645
0.73380511
0.76271057
0.79064004
0.81746018
0.84304863
0.86729542
0.89010410
0.91139260
0.93109376
0.94915594
0.96554414
0.98024236
0.99325730
1.00462022
1.01437465
1.02251019
1.02871177
1.03146645
1.02475201
0.98897093
0.89870493
0.78871044
0.68212062
0.58584371
0.50075705
0.42619118
0.36116085
0.30469133
0.25587674
0.21388126
0.17793382
0.14732323
0.12139528
0.09955126
0.08124691
0.06599116
0.05334445
0.04291655
0.03436377
0.02738587
0.02172260
0.01715010
0.01347726
0.01054209
0.00820828
0.00636193
0.00490846
0.00376993
0.00288244
0.00219400
0.00166253
0.00125421
0.00094199
0.00070437
0.00052438
0.00038868
0.00028684
0.00021077
0.00015420
0.00011233
0.00008147
0.00005884
0.00004231
0.00003030
0.00002160
0.00001534
0.00001085
0.00000764
0.00000535
0.00000374
0.00000260
0.00000180
0.00000124
0.00000085
0.00000058
0.00000040
0.00000027
0.00000018
0.00000012
0.00000008
0.00000005
0.00000004
0.00000002
0.00000002
0.00000001
0.00000001
0.00000000
0.00000000
0.00000000
0.00000000
0.00000000
0.00000000
0.00000000
0.00000000
0.00000000
0.00000000
0.00000000
0.00000000
0.00000000
0.00000000
0.00000000
0.00000000
0.00000000
0.00000000
0.00000000
0.00000000
0.00000000
0.00000000
0.00000000
0.00000000
0.00000000
0.00000000
0.00000000
0.00000000
0.00000000
0.00000000
0.00000000
0.00000000
0.00000000
0.00000000
0.00000000
0.00000000
0.00000000
0.00000000
0.00000000
0.00000000
0.00000000
0.00000000
0.00000000
0.00000000
0.00000000
0.00000000
0.00000000
0.00000000
0.00000000
0.00000000
0.00000000
0.00000000
0.00000000
0.00000000
0.00000000
0.00000000
0.00000000
0.00000000
0.00000000
0.00000000
0.00000000
0.00000000
0.00000000
0.00000000
0.00000000
0.00000000
0.00000000
0.00000000
0.00000000
0.00000000
0.00000000
0.00000000
0.00000000
0.00000000
0.00000000
0.00000000
0.00000000
0.00000000
0.00000000
0.00000000
0.00000000
0.00000000
0.00000000
0.00000000
0.00000000
0.00000000
0.00000000
0.00000000
0.00000000
0.00000000
0.00000000
0.00000000
0.00000000
0.00000000
0.00000000
0.00000000
0.00000000
0.00000000
0.00000000
0.00000000
0.00000000
0.00000000
0.00000000
0.00000000
0.00000000
0.00000000
0.00000000
0.00000000
0.00000000
0.00000000
0.00000000
0.00000000
0.00000000
0.00000000
0.00000000
0.00000000
0.00000000
0.00000000
0.00000000
0.00000000
0.00000000
0.00000000
0.00000000
0.00000000
0.00000000
0.00000000
0.00000000
0.00000000
0.00000000
0.00000000
0.00000000
0.00000000
0.00000000
0.00000000
0.00000000
0.00000000
0.00000000
0.00000000
0.00000000
0.00000000
0.00000000
0.00000000
0.00000000
0.00000000
0.00000000
0.00000000
0.00000000
0.00000000
0.00000000
0.00000000
0.00000000
0.00000000
0.00000000
0.00000000
0.00000000
0.00000000
0.00000000
0.00000000
0.00000000
0.00000000
0.00000000
0.00000000
0.00000000
0.00000000
0.00000000
0.00000000
0.00000000
0.00000000
0.00000000
0.00000000
0.00000000
0.00000000
0.00000000
0.00000000
0.00000000
0.00000000
0.00000000
0.00000000
0.00000000
0.00000000
0.00000000
0.00000000
0.00000000
0.00000000
0.00000000
0.00000000
0.00000000
0.00000000
0.00000000
0.00000000
0.00000000
0.00000000
0.00000000
0.00000000
0.00000000
0.00000000
0.00000000
0.00000000
0.00000000
0.00000000
0.00000000
0.00000000
0.00000000
0.00000000
0.00000000
0.00000000
0.00000000
0.00000000
0.00000000
0.00000000
0.00000000
0.00000000
0.00000000
0.00000000
0.00000000
0.00000000
0.00000000
0.00000000
0.00000000
0.00000000
0.00000000
0.00000000
0.00000001
0.00000001
0.00000001
0.00000002
0.00000003
0.00000004
0.00000006
0.00000008
0.00000011
0.00000016
0.00000023
0.00000033
0.00000046
0.00000065
0.00000091
0.00000127
0.00000176
0.00000244
0.00000335
0.00000459
0.00000626
0.00000851
0.00001151
0.00001551
0.00002080
0.00002779
0.00003696
0.00004897
0.00006459
0.00008486
0.00011101
0.00014461
0.00018759
0.00024234
0.00031177
0.00039940
0.00050955
0.00064736
0.00081902
0.00103190
0.00129472
0.00161774
0.00201299
0.00249447
0.00307834
0.00378324
0.00463043
0.00564407
0.00685144
0.00828308
0.00997305
0.01195898
0.01428220
0.01698775
0.02012434
0.02374424
0.02790306
0.03265941
0.03807455
0.04421180
0.05113592
0.05891234
0.06760631
0.07728189
0.08800090
0.09982173
0.11279818
0.12697811
0.14240226
0.15910290
0.17710266
0.19641338
0.21703505
0.23895495
0.26214688
0.28657068
0.31217187
0.33888165
0.36661705
0.39528138
0.42476498
0.45494613
0.48569232
0.51686161
0.54830431
0.57986467
0.61138288
0.64269693
0.67364474
0.70406610
0.73380472
0.76271015
0.79063959
0.81745970
0.84304812
0.86729486
0.89010347
0.91139183
0.93109273
0.94915459
0.96554278
0.98024263
0.99326426
1.00464669
1.01444941
1.02269132
1.02909964
1.03214650
1.02547722
0.98779067
0.89691063
0.78741257
0.68142921
0.58550045
0.50058967
0.42610854
0.36111836
0.30466877
0.25586425
0.21387406
0.17792953
0.14732061
0.12139364
0.09955022
0.08124624
0.06599072
0.05334417
0.04291636
0.03436365
0.02738579
0.02172255
0.01715007
0.01347724
0.01054208
0.00820828
0.00636192
0.00490846
0.00376993
0.00288244
0.00219400
0.00166253
0.00125421
0.00094199
0.00070437
0.00052438
0.00038868
0.00028684
0.00021077
0.00015420
0.00011233
0.00008147
0.00005884
0.00004231
0.00003030
0.00002161
0.00001534
0.00001085
0.00000764
0.00000535
0.00000374
0.00000260
0.00000180
0.00000124
0.00000085
0.00000058
0.00000040
0.00000027
0.00000018
0.00000012
0.00000008
0.00000005
0.00000004
0.00000002
0.00000002
0.00000001
0.00000001
0.00000000
0.00000000
0.00000000
0.00000000
0.00000000
0.00000000
0.00000000
0.00000000
0.00000000
0.00000000
0.00000000
0.00000000
0.00000000
0.00000000
0.00000000
0.00000000
0.00000000
0.00000000
0.00000000
0.00000000
0.00000000
0.00000000
0.00000000
0.00000000
0.00000000
0.00000000
0.00000000
0.00000000
0.00000000
0.00000000
0.00000000
0.00000000
0.00000000
0.00000000
0.00000000
0.00000000
0.00000000
0.00000000
0.00000000
0.00000000
0.00000000
0.00000000
0.00000000
0.00000000
0.00000000
0.00000000
0.00000000
0.00000000
0.00000000
0.00000000
0.00000000
0.00000000
0.00000000
0.00000000
0.00000000
0.00000000
0.00000000
0.00000000
0.00000000
0.00000000
0.00000000
0.00000000
0.00000000
0.00000000
0.00000000
0.00000000
0.00000000
0.00000000
0.00000000
0.00000000
0.00000000
0.00000000
0.00000000
0.00000000
0.00000000
0.00000000
0.00000000
0.00000000
0.00000000
0.00000000
0.00000000
0.00000000
0.00000000
0.00000000
0.00000000
0.00000000
0.00000000
0.00000000
0.00000000
0.00000000
0.00000000
0.00000000
0.00000000
0.00000000
0.00000000
0.00000000
0.00000000
0.00000000
0.00000000
0.00000000
0.00000000
0.00000000
0.00000000
0.00000000
0.00000000
0.00000000
0.00000000
0.00000000
0.00000000
0.00000000
0.00000000
0.00000000
0.00000000
0.00000000
0.00000000
0.00000000
0.00000000
0.00000000
0.00000000
0.00000000
0.00000000
0.00000000
0.00000000
0.00000000
0.00000000
0.00000000
0.00000000
0.00000000
0.00000000
0.00000000