# vtk DataFile Version 3.0
Concentration output
ASCII
DATASET STRUCTURED_POINTS
DIMENSIONS 398 98 1
ORIGIN 0 0 0
SPACING 0.03 0.03 1.0
POINT_DATA 39004
SCALARS Variable float 1
LOOKUP_TABLE default
0.00010792
0.00011055
0.00011586
0.00012394
0.00013494
0.00014907
0.00016658
0.00018778
0.00021304
0.00024280
0.00027757
0.00031793
0.00036454
0.00041815
0.00047961
0.00054987
0.00062997
0.00072111
0.00082458
0.00094183
0.00107447
0.00122424
0.00139309
0.00158313
0.00179668
0.00203629
0.00230470
0.00260492
0.00294021
0.00331409
0.00373036
0.00419314
0.00470683
0.00527618
0.00590626
0.00660250
0.00737067
0.00821692
0.00914779
0.01017019
0.01129140
0.01251913
0.01386145
0.01532683
0.01692414
0.01866259
0.02055180
0.02260171
0.02482262
0.02722512
0.02982012
0.03261876
0.03563242
0.03887268
0.04235125
0.04607997
0.05007070
0.05433533
0.05888567
0.06373345
0.06889018
0.07436714
0.08017528
0.08632517
0.09282691
0.09969005
0.10692354
0.11453561
0.12253373
0.13092452
0.13971367
0.14890588
0.15850477
0.16851285
0.17893142
0.18976054
0.20099898
0.21264416
0.22469211
0.23713749
0.24997351
0.26319195
0.27678317
0.29073607
0.30503818
0.31967564
0.33463323
0.34989447
0.36544163
0.38125584
0.39731713
0.41360456
0.43009628
0.44676967
0.46360143
0.48056771
0.49764423
0.51480641
0.53202952
0.54928879
0.56655955
0.58381738
0.60103822
0.61819854
0.63527539
0.65224661
0.66909087
0.68578781
0.70231816
0.71866382
0.73480796
0.75073514
0.76643145
0.78188459
0.79708404
0.81202123
0.82668967
0.84108514
0.85520590
0.86905274
0.88262918
0.89594155
0.90899918
0.92181503
0.93440697
0.94680105
0.95903830
0.97118789
0.98336943
0.99577452
1.00859580
1.02118592
1.02830253
1.02522189
1.01989077
1.01474040
1.01064715
1.00790499
1.00638437
1.00570496
1.00550246
1.00546855
1.00556413
1.00574138
1.00593168
1.00611816
1.00633339
1.00652277
1.00666389
1.00688879
1.00703888
1.00715942
1.00725531
1.00725598
1.00719817
1.00705218
1.00673522
1.00623397
1.00547770
1.00431389
1.00266420
1.00022374
0.99650110
0.99076143
0.98189637
0.96795822
0.94576340
0.91067469
0.85667976
0.77928237
0.68206675
0.57682609
0.47537975
0.38482020
0.30784552
0.24442384
0.19320346
0.15236609
0.12007353
0.09466697
0.07473506
0.05911775
0.04688181
0.03728684
0.02975082
0.02381901
0.01913751
0.01543152
0.01248796
0.01014159
0.00826426
0.00675644
0.00554071
0.00455672
0.00375729
0.00310545
0.00257211
0.00213430
0.00177383
0.00147623
0.00122990
0.00102558
0.00085576
0.00071439
0.00059654
0.00049818
0.00041602
0.00034733
0.00028990
0.00024185
0.00020165
0.00016803
0.00013991
0.00011640
0.00009675
0.00008035
0.00006666
0.00005524
0.00004573
0.00003781
0.00003123
0.00002576
0.00002123
0.00001747
0.00001435
0.00001178
0.00000965
0.00000790
0.00000646
0.00000527
0.00000430
0.00000350
0.00000284
0.00000231
0.00000187
0.00000151
0.00000122
0.00000099
0.00000080
0.00000064
0.00000051
0.00000041
0.00000033
0.00000026
0.00000021
0.00000017
0.00000013
0.00000011
0.00000008
0.00000007
0.00000005
0.00000004
0.00000003
0.00000003
0.00000002
0.00000002
0.00000001
0.00000001
0.00000001
0.00000001
0.00000000
0.00000000
0.00000000
0.00000000
0.00000000
0.00000000
0.00000000
0.00000000
0.00000000
0.00000000
0.00000000
0.00000000
0.00000000
0.00000000
0.00000000
0.00000000
0.00000000
0.00000000
0.00000000
0.00000000
0.00000000
0.00000000
0.00000000
0.00000000
0.00000000
0.00000000
0.00000000
0.00000000
0.00000000
0.00000000
0.00000000
0.00000000
0.00000000
0.00000000
0.00000000
0.00000000
0.00000000
0.00000000
0.00000000
0.00000000
0.00000000
0.00000000
0.00000000
0.00000000
0.00000000
0.00000000
0.00000000
0.00000000
0.00000000
0.00000000
0.00000000
0.00000000
0.00000000
0.00000000
0.00000000
0.00000000
0.00000000
0.00000000
0.00000000
0.00000000
0.00000000
0.00000000
0.00000000
0.00000000
0.00000000
0.00000000
0.00000000
0.00000000
0.00000000
0.00000000
0.00000000
0.00000000
0.00000000
0.00000000
0.00000000
0.00000000
0.00000000
0.00000000
0.00000000
0.00000000
0.00000000
0.00000000
0.00000000
0.00000000
0.00000000
0.00000000
0.00000000
0.00000000
0.00000000
0.00000000
0.00000000
0.00000000
0.00000000
0.00000000
0.00000000
0.00000000
0.00000000
0.00000000
0.00000000
0.00000000
0.00000000
0.00000000
0.00000000
0.00000000
0.00000000
0.00000000
0.00000000
0.00000000
0.00000000
0.00000000
0.00000000
0.00000000
0.00000000
0.00000000
0.00000000
0.00000000
0.00000000
0.00000000
0.00000000
0.00000000
0.00000000
0.00000000
0.00000000
0.00000000
0.00000000
0.00000000
0.00000000
0.00000000
0.00000000
0.00000000
0.00000000
0.00000000
0.00000000
0.00000000
0.00000000
0.00000000
0.00000000
0.00000000
0.00010792
0.00011055
0.00011586
0.00012394
0.00013494
0.00014907
0.00016658
0.00018778
0.00021304
0.00024280
0.00027757
0.00031793
0.00036454
0.00041815
0.00047961
0.00054987
0.00062997
0.00072111
0.00082458
0.00094183
0.00107447
0.00122424
0.00139309
0.00158313
0.00179668
0.00203629
0.00230470
0.00260492
0.00294021
0.00331409
0.00373036
0.00419314
0.00470683
0.00527618
0.00590626
0.00660250
0.00737067
0.00821692
0.00914779
0.01017019
0.01129140
0.01251913
0.01386145
0.01532683
0.01692414
0.01866259
0.02055180
0.02260171
0.02482262
0.02722512
0.02982012
0.03261876
0.03563242
0.03887268
0.04235125
0.04607997
0.05007070
0.05433533
0.05888568
0.06373345
0.06889018
0.07436714
0.08017528
0.08632517
0.09282691
0.09969005
0.10692354
0.11453562
0.12253374
0.13092453
0.13971368
0.14890588
0.15850477
0.16851285
0.17893142
0.18976055
0.20099899
0.21264417
0.22469212
0.23713751
0.24997353
0.26319197
0.27678319
0.29073610
0.30503821
0.31967567
0.33463326
0.34989451
0.36544167
0.38125589
0.39731718
0.41360462
0.43009634
0.44676974
0.46360150
0.48056779
0.49764431
0.51480650
0.53202961
0.54928888
0.56655964
0.58381747
0.60103831
0.61819861
0.63527545
0.65224665
0.66909087
0.68578776
0.70231804
0.71866358
0.73480756
0.75073452
0.76643050
0.78188315
0.79708190
0.81201804
0.82668493
0.84107813
0.85519548
0.86903721
0.88260594
0.89590658
0.90894621
0.92173413
0.93428226
0.94660670
0.95873149
0.97069639
0.98256967
0.99446262
1.00649622
1.01837721
1.02696282
1.02467324
1.01922340
1.01370112
1.00939879
1.00674528
1.00569976
1.00520542
1.00518900
1.00539297
1.00541141
1.00565957
1.00587304
1.00605431
1.00632882
1.00652406
1.00662127
1.00690173
1.00703518
1.00719618
1.00736368
1.00745232
1.00738191
1.00736467
1.00714159
1.00681851
1.00626706
1.00548084
1.00433397
1.00276451
1.00045366
0.99685014
0.99151295
0.98274432
0.96751081
0.94006356
0.89233648
0.81584700
0.71234764
0.59798096
0.48871355
0.39274816
0.31240985
0.24700519
0.19464988
0.15317339
0.12052420
0.09491965
0.07487808
0.05920004
0.04693034
0.03731645
0.02976967
0.02383160
0.01914632
0.01543795
0.01249279
0.01014531
0.00826716
0.00675872
0.00554251
0.00455813
0.00375840
0.00310631
0.00257278
0.00213482
0.00177423
0.00147653
0.00123014
0.00102575
0.00085589
0.00071449
0.00059661
0.00049824
0.00041606
0.00034736
0.00028992
0.00024187
0.00020167
0.00016804
0.00013991
0.00011640
0.00009676
0.00008035
0.00006666
0.00005524
0.00004573
0.00003781
0.00003123
0.00002576
0.00002123
0.00001747
0.00001435
0.00001178
0.00000965
0.00000790
0.00000646
0.00000527
0.00000430
0.00000350
0.00000284
0.00000231
0.00000187
0.00000151
0.00000122
0.00000099
0.00000080
0.00000064
0.00000051
0.00000041
0.00000033
0.00000026
0.00000021
0.00000017
0.00000013
0.00000011
0.00000008
0.00000007
0.00000005
0.00000004
0.00000003
0.00000003
0.00000002
0.00000002
0.00000001
0.00000001
0.00000001
0.00000001
0.00000000
0.00000000
0.00000000
0.00000000
0.00000000
0.00000000
0.00000000
0.00000000
0.00000000
0.00000000
0.00000000
0.00000000
0.00000000
0.00000000
0.00000000
0.00000000
0.00000000
0.00000000
0.00000000
0.00000000
0.00000000
0.00000000
0.00000000
0.00000000
0.00000000
0.00000000
0.00000000
0.00000000
0.00000000
0.00000000
0.00000000
0.00000000
0.00000000
0.00000000
0.00000000
0.00000000
0.00000000
0.00000000
0.00000000
0.00000000
0.00000000
0.00000000
0.00000000
0.00000000
0.00000000
0.00000000
0.00000000
0.00000000
0.00000000
0.00000000
0.00000000
0.00000000
0.00000000
0.00000000
0.00000000
0.00000000
0.00000000
0.00000000
0.00000000
0.00000000
0.00000000
0.00000000
0.00000000
0.00000000
0.00000000
0.00000000
0.00000000
0.00000000
0.00000000
0.00000000
0.00000000
0.00000000
0.00000000
0.00000000
0.00000000
0.00000000
0.00000000
0.00000000
0.00000000
0.00000000
0.00000000
0.00000000
0.00000000
0.00000000
0.00000000
0.00000000
0.00000000
0.00000000
0.00000000
0.00000000
0.00000000
0.00000000
0.00000000
0.00000000
0.00000000
0.00000000
0.00000000
0.00000000
0.00000000
0.00000000
0.00000000
0.00000000
0.00000000
0.00000000
0.00000000
0.00000000
0.00000000
0.00000000
0.00000000
0.00000000
0.00000000
0.00000000
0.00000000
0.00000000
0.00000000
0.00000000
0.00000000
0.00000000
0.00000000
0.00000000
0.00000000
0.00000000
0.00000000
0.00000000
0.00000000
0.00000000
0.00000000
0.00000000
0.00000000
0.00000000
0.00000000
0.00000000
0.00000000
0.00000000
0.00000000
0.00000000
0.00000000
0.00000000
0.00010792
0.00011055
0.00011586
0.00012394
0.00013494
0.00014907
0.00016658
0.00018778
0.00021304
0.00024280
0.00027757
0.00031793
0.00036454
0.00041815
0.00047961
0.00054987
0.00062997
0.00072111
0.00082458
0.00094183
0.00107447
0.00122424
0.00139309
0.00158313
0.00179668
0.00203629
0.00230470
0.00260492
0.00294021
0.00331409
0.00373036
0.00419314
0.00470683
0.00527618
0.00590626
0.00660250
0.00737067
0.00821692
0.00914779
0.01017019
0.01129140
0.01251913
0.01386145
0.01532683
0.01692414
0.01866259
0.02055180
0.02260171
0.02482262
0.02722512
0.02982012
0.03261876
0.03563242
0.03887268
0.04235125
0.04607997
0.05007070
0.05433533
0.05888568
0.06373345
0.06889018
0.07436714
0.08017528
0.08632517
0.09282691
0.09969006
0.10692355
0.11453562
0.12253374
0.13092453
0.13971368
0.14890589
0.15850478
0.16851286
0.17893144
0.18976056
0.20099900
0.21264418
0.22469215
0.23713753
0.24997356
0.26319200
0.27678323
0.29073614
0.30503826
0.31967572
0.33463333
0.34989458
0.36544176
0.38125598
0.39731728
0.41360473
0.43009647
0.44676987
0.46360165
0.48056794
0.49764448
0.51480667
0.53202979
0.54928907
0.56655983
0.58381765
0.60103848
0.61819877
0.63527558
0.65224673
0.66909088
0.68578768
0.70231781
0.71866314
0.73480682
0.75073335
0.76642871
0.78188046
0.79707789
0.81201212
0.82667621
0.84106527
0.85517650
0.86900913
0.88256421
0.89584425
0.90885251
0.92159216
0.93406517
0.94627125
0.95820699
0.96986528
0.98123299
0.99227834
1.00289023
1.01263723
1.01993677
1.02094624
1.01731454
1.01178269
1.00744926
1.00511123
1.00467592
1.00480534
1.00491147
1.00505615
1.00523428
1.00557750
1.00569853
1.00582631
1.00605057
1.00630608
1.00662885
1.00680664
1.00698844
1.00722387
1.00742576
1.00766912
1.00773060
1.00791667
1.00805023
1.00803792
1.00806500
1.00796930
1.00793639
1.00775845
1.00771396
1.00779528
1.00772922
1.00689948
1.00259656
0.98807273
0.95279319
0.88215489
0.76940774
0.63778629
0.51348182
0.40729744
0.32071197
0.25167501
0.19725792
0.15462664
0.12133538
0.09537514
0.07513682
0.05934982
0.04701949
0.03737155
0.02980529
0.02385577
0.01916349
0.01545063
0.01250244
0.01015279
0.00827302
0.00676333
0.00554614
0.00456099
0.00376063
0.00310806
0.00257413
0.00213587
0.00177504
0.00147715
0.00123060
0.00102611
0.00085616
0.00071469
0.00059676
0.00049835
0.00041614
0.00034743
0.00028996
0.00024190
0.00020169
0.00016806
0.00013993
0.00011641
0.00009676
0.00008036
0.00006666
0.00005525
0.00004573
0.00003782
0.00003123
0.00002576
0.00002123
0.00001747
0.00001435
0.00001178
0.00000965
0.00000790
0.00000646
0.00000527
0.00000430
0.00000350
0.00000284
0.00000231
0.00000187
0.00000151
0.00000122
0.00000099
0.00000080
0.00000064
0.00000051
0.00000041
0.00000033
0.00000026
0.00000021
0.00000017
0.00000013
0.00000011
0.00000008
0.00000007
0.00000005
0.00000004
0.00000003
0.00000003
0.00000002
0.00000002
0.00000001
0.00000001
0.00000001
0.00000001
0.00000000
0.00000000
0.00000000
0.00000000
0.00000000
0.00000000
0.00000000
0.00000000
0.00000000
0.00000000
0.00000000
0.00000000
0.00000000
0.00000000
0.00000000
0.00000000
0.00000000
0.00000000
0.00000000
0.00000000
0.00000000
0.00000000
0.00000000
0.00000000
0.00000000
0.00000000
0.00000000
0.00000000
0.00000000
0.00000000
0.00000000
0.00000000
0.00000000
0.00000000
0.00000000
0.00000000
0.00000000
0.00000000
0.00000000
0.00000000
0.00000000
0.00000000
0.00000000
0.00000000
0.00000000
0.00000000
0.00000000
0.00000000
0.00000000
0.00000000
0.00000000
0.00000000
0.00000000
0.00000000
0.00000000
0.00000000
0.00000000
0.00000000
0.00000000
0.00000000
0.00000000
0.00000000
0.00000000
0.00000000
0.00000000
0.00000000
0.00000000
0.00000000
0.00000000
0.00000000
0.00000000
0.00000000
0.00000000
0.00000000
0.00000000
0.00000000
0.00000000
0.00000000
0.00000000
0.00000000
0.00000000
0.00000000
0.00000000
0.00000000
0.00000000
0.00000000
0.00000000
0.00000000
0.00000000
0.00000000
0.00000000
0.00000000
0.00000000
0.00000000
0.00000000
0.00000000
0.00000000
0.00000000
0.00000000
0.00000000
0.00000000
0.00000000
0.00000000
0.00000000
0.00000000
0.00000000
0.00000000
0.00000000
0.00000000
0.00000000
0.00000000
0.00000000
0.00000000
0.00000000
0.00000000
0.00000000
0.00000000
0.00000000
0.00000000
0.00000000
0.00000000
0.00000000
0.00000000
0.00000000
0.00000000
0.00000000
0.00000000
0.00000000
0.00000000
0.00000000
0.00000000
0.00000000
0.00000000
0.00000000
0.00000000
0.00000000
0.00000000
0.00000000
0.00010792
0.00011055
0.00011586
0.00012394
0.00013494
0.00014907
0.00016658
0.00018778
0.00021304
0.00024280
0.00027757
0.00031793
0.00036454
0.00041815
0.00047961
0.00054987
0.00062997
0.00072111
0.00082458
0.00094183
0.00107447
0.00122424
0.00139309
0.00158313
0.00179668
0.00203629
0.00230470
0.00260492
0.00294021
0.00331409
0.00373036
0.00419314
0.00470683
0.00527618
0.00590626
0.00660250
0.00737067
0.00821692
0.00914779
0.01017019
0.01129140
0.01251913
0.01386145
0.01532683
0.01692414
0.01866259
0.02055180
0.02260171
0.02482262
0.02722512
0.02982012
0.03261876
0.03563242
0.03887268
0.04235125
0.04607997
0.05007070
0.05433533
0.05888568
0.06373345
0.06889018
0.07436714
0.08017528
0.08632517
0.09282691
0.09969006
0.10692355
0.11453562
0.12253375
0.13092454
0.13971369
0.14890590
0.15850479
0.16851288
0.17893145
0.18976058
0.20099903
0.21264421
0.22469218
0.23713757
0.24997360
0.26319205
0.27678328
0.29073620
0.30503833
0.31967581
0.33463342
0.34989468
0.36544187
0.38125611
0.39731743
0.41360489
0.43009664
0.44677007
0.46360186
0.48056817
0.49764472
0.51480693
0.53203006
0.54928934
0.56656011
0.58381793
0.60103875
0.61819901
0.63527578
0.65224686
0.66909092
0.68578757
0.70231751
0.71866256
0.73480583
0.75073178
0.76642630
0.78187686
0.79707257
0.81200432
0.82666481
0.84104865
0.85515226
0.86897371
0.88251231
0.89576782
0.90873928
0.92142312
0.93381054
0.94588380
0.95761124
0.96893993
0.97978378
0.98999974
0.99933427
1.00729464
1.01291846
1.01480510
1.01343445
1.01027581
1.00732837
1.00563769
1.00491362
1.00469457
1.00470124
1.00476448
1.00493662
1.00512944
1.00531709
1.00549438
1.00575976
1.00604872
1.00631560
1.00662005
1.00688985
1.00721947
1.00752511
1.00792700
1.00827074
1.00869634
1.00915046
1.00961719
1.01018054
1.01082092
1.01165112
1.01273038
1.01410357
1.01583778
1.01796053
1.02006627
1.02077881
1.01674181
0.99946405
0.94836389
0.83848051
0.68846211
0.54507662
0.42569688
0.33112891
0.25750048
0.20050030
0.15643121
0.12234373
0.09594362
0.07546232
0.05954073
0.04713532
0.03744490
0.02985407
0.02388983
0.01918833
0.01546936
0.01251689
0.01016409
0.00828193
0.00677037
0.00555169
0.00456536
0.00376406
0.00311073
0.00257620
0.00213746
0.00177626
0.00147808
0.00123131
0.00102665
0.00085657
0.00071499
0.00059699
0.00049851
0.00041626
0.00034752
0.00029003
0.00024195
0.00020173
0.00016808
0.00013995
0.00011643
0.00009677
0.00008036
0.00006667
0.00005525
0.00004574
0.00003782
0.00003123
0.00002576
0.00002123
0.00001747
0.00001435
0.00001178
0.00000965
0.00000790
0.00000646
0.00000527
0.00000430
0.00000350
0.00000284
0.00000231
0.00000187
0.00000151
0.00000122
0.00000099
0.00000080
0.00000064
0.00000051
0.00000041
0.00000033
0.00000026
0.00000021
0.00000017
0.00000013
0.00000011
0.00000008
0.00000007
0.00000005
0.00000004
0.00000003
0.00000003
0.00000002
0.00000002
0.00000001
0.00000001
0.00000001
0.00000001
0.00000000
0.00000000
0.00000000
0.00000000
0.00000000
0.00000000
0.00000000
0.00000000
0.00000000
0.00000000
0.00000000
0.00000000
0.00000000
0.00000000
0.00000000
0.00000000
0.00000000
0.00000000
0.00000000
0.00000000
0.00000000
0.00000000
0.00000000
0.00000000
0.00000000
0.00000000
0.00000000
0.00000000
0.00000000
0.00000000
0.00000000
0.00000000
0.00000000
0.00000000
0.00000000
0.00000000
0.00000000
0.00000000
0.00000000
0.00000000
0.00000000
0.00000000
0.00000000
0.00000000
0.00000000
0.00000000
0.00000000
0.00000000
0.00000000
0.00000000
0.00000000
0.00000000
0.00000000
0.00000000
0.00000000
0.00000000
0.00000000
0.00000000
0.00000000
0.00000000
0.00000000
0.00000000
0.00000000
0.00000000
0.00000000
0.00000000
0.00000000
0.00000000
0.00000000
0.00000000
0.00000000
0.00000000
0.00000000
0.00000000
0.00000000
0.00000000
0.00000000
0.00000000
0.00000000
0.00000000
0.00000000
0.00000000
0.00000000
0.00000000
0.00000000
0.00000000
0.00000000
0.00000000
0.00000000
0.00000000
0.00000000
0.00000000
0.00000000
0.00000000
0.00000000
0.00000000
0.00000000
0.00000000
0.00000000
0.00000000
0.00000000
0.00000000
0.00000000
0.00000000
0.00000000
0.00000000
0.00000000
0.00000000
0.00000000
0.00000000
0.00000000
0.00000000
0.00000000
0.00000000
0.00000000
0.00000000
0.00000000
0.00000000
0.00000000
0.00000000
0.00000000
0.00000000
0.00000000
0.00000000
0.00000000
0.00000000
0.00000000
0.00000000
0.00000000
0.00000000
0.00000000
0.00000000
0.00000000
0.00000000
0.00000000
0.00000000
0.00000000
0.00000000
0.00010792
0.00011055
0.00011586
0.00012394
0.00013494
0.00014907
0.00016658
0.00018778
0.00021304
0.00024280
0.00027757
0.00031793
0.00036454
0.00041815
0.00047961
0.00054987
0.00062997
0.00072111
0.00082458
0.00094183
0.00107447
0.00122424
0.00139309
0.00158313
0.00179668
0.00203629
0.00230470
0.00260492
0.00294021
0.00331409
0.00373036
0.00419314
0.00470683
0.00527618
0.00590626
0.00660250
0.00737067
0.00821692
0.00914779
0.01017019
0.01129140
0.01251913
0.01386145
0.01532683
0.01692414
0.01866259
0.02055180
0.02260171
0.02482262
0.02722512
0.02982012
0.03261876
0.03563242
0.03887268
0.04235125
0.04607997
0.05007070
0.05433533
0.05888568
0.06373346
0.06889018
0.07436714
0.08017528
0.08632518
0.09282692
0.09969007
0.10692356
0.11453563
0.12253376
0.13092455
0.13971370
0.14890591
0.15850481
0.16851289
0.17893147
0.18976061
0.20099906
0.21264424
0.22469222
0.23713761
0.24997365
0.26319211
0.27678335
0.29073628
0.30503843
0.31967591
0.33463354
0.34989482
0.36544203
0.38125628
0.39731762
0.41360510
0.43009687
0.44677032
0.46360213
0.48056846
0.49764503
0.51480726
0.53203041
0.54928970
0.56656047
0.58381829
0.60103909
0.61819933
0.63527605
0.65224705
0.66909100
0.68578749
0.70231718
0.71866190
0.73480470
0.75072998
0.76642355
0.78187278
0.79706660
0.81199567
0.82665236
0.84103080
0.85512673
0.86893721
0.88246007
0.89569285
0.90863116
0.92126608
0.93358032
0.94554262
0.95709989
0.96816622
0.97860766
0.98822119
0.99670569
1.00362842
1.00843001
1.01062206
1.01048118
1.00893215
1.00712396
1.00575486
1.00493825
1.00453743
1.00438706
1.00439372
1.00450442
1.00466758
1.00487562
1.00509822
1.00535768
1.00566023
1.00596510
1.00631168
1.00667600
1.00708796
1.00754809
1.00806920
1.00864020
1.00931615
1.01008690
1.01098222
1.01204808
1.01332875
1.01488779
1.01679645
1.01910215
1.02186137
1.02507641
1.02853481
1.03157220
1.03220616
1.02439029
0.98947494
0.89563753
0.73652186
0.57611627
0.44391951
0.34143884
0.26325585
0.20370142
0.15821517
0.12334527
0.09651387
0.07579448
0.05974071
0.04726104
0.03752801
0.02991190
0.02393196
0.01922013
0.01549398
0.01253624
0.01017942
0.00829410
0.00678002
0.00555931
0.00457135
0.00376875
0.00311438
0.00257903
0.00213963
0.00177793
0.00147935
0.00123227
0.00102737
0.00085711
0.00071540
0.00059729
0.00049874
0.00041643
0.00034764
0.00029012
0.00024201
0.00020177
0.00016812
0.00013997
0.00011645
0.00009679
0.00008037
0.00006668
0.00005525
0.00004574
0.00003782
0.00003124
0.00002577
0.00002123
0.00001747
0.00001435
0.00001178
0.00000966
0.00000790
0.00000646
0.00000527
0.00000430
0.00000350
0.00000284
0.00000231
0.00000187
0.00000151
0.00000122
0.00000099
0.00000080
0.00000064
0.00000051
0.00000041
0.00000033
0.00000026
0.00000021
0.00000017
0.00000013
0.00000011
0.00000008
0.00000007
0.00000005
0.00000004
0.00000003
0.00000003
0.00000002
0.00000002
0.00000001
0.00000001
0.00000001
0.00000001
0.00000000
0.00000000
0.00000000
0.00000000
0.00000000
0.00000000
0.00000000
0.00000000
0.00000000
0.00000000
0.00000000
0.00000000
0.00000000
0.00000000
0.00000000
0.00000000
0.00000000
0.00000000
0.00000000
0.00000000
0.00000000
0.00000000
0.00000000
0.00000000
0.00000000
0.00000000
0.00000000
0.00000000
0.00000000
0.00000000
0.00000000
0.00000000
0.00000000
0.00000000
0.00000000
0.00000000
0.00000000
0.00000000
0.00000000
0.00000000
0.00000000
0.00000000
0.00000000
0.00000000
0.00000000
0.00000000
0.00000000
0.00000000
0.00000000
0.00000000
0.00000000
0.00000000
0.00000000
0.00000000
0.00000000
0.00000000
0.00000000
0.00000000
0.00000000
0.00000000
0.00000000
0.00000000
0.00000000
0.00000000
0.00000000
0.00000000
0.00000000
0.00000000
0.00000000
0.00000000
0.00000000
0.00000000
0.00000000
0.00000000
0.00000000
0.00000000
0.00000000
0.00000000
0.00000000
0.00000000
0.00000000
0.00000000
0.00000000
0.00000000
0.00000000
0.00000000
0.00000000
0.00000000
0.00000000
0.00000000
0.00000000
0.00000000
0.00000000
0.00000000
0.00000000
0.00000000
0.00000000
0.00000000
0.00000000
0.00000000
0.00000000
0.00000000
0.00000000
0.00000000
0.00000000
0.00000000
0.00000000
0.00000000
0.00000000
0.00000000
0.00000000
0.00000000
0.00000000
0.00000000
0.00000000
0.00000000
0.00000000
0.00000000
0.00000000
0.00000000
0.00000000
0.00000000
0.00000000
0.00000000
0.00000000
0.00000000
0.00000000
0.00000000
0.00000000
0.00000000
0.00000000
0.00000000
0.00000000
0.00000000
0.00000000
0.00000000
0.00000000
0.00000000
0.00010792
0.00011055
0.00011586
0.00012394
0.00013494
0.00014907
0.00016658
0.00018778
0.00021304
0.00024280
0.00027757
0.00031793
0.00036454
0.00041815
0.00047961
0.00054987
0.00062997
0.00072111
0.00082458
0.00094183
0.00107447
0.00122424
0.00139309
0.00158313
0.00179668
0.00203629
0.00230470
0.00260492
0.00294021
0.00331409
0.00373036
0.00419314
0.00470683
0.00527618
0.00590626
0.00660250
0.00737067
0.00821692
0.00914779
0.01017019
0.01129140
0.01251913
0.01386145
0.01532683
0.01692414
0.01866259
0.02055180
0.02260171
0.02482262
0.02722512
0.02982012
0.03261876
0.03563242
0.03887268
0.04235126
0.04607997
0.05007070
0.05433533
0.05888568
0.06373346
0.06889019
0.07436714
0.08017529
0.08632518
0.09282692
0.09969007
0.10692356
0.11453564
0.12253376
0.13092456
0.13971371
0.14890593
0.15850483
0.16851292
0.17893150
0.18976064
0.20099909
0.21264429
0.22469226
0.23713767
0.24997371
0.26319219
0.27678344
0.29073638
0.30503854
0.31967604
0.33463368
0.34989498
0.36544221
0.38125648
0.39731784
0.41360535
0.43009715
0.44677062
0.46360246
0.48056881
0.49764541
0.51480766
0.53203083
0.54929013
0.56656091
0.58381873
0.60103952
0.61819972
0.63527639
0.65224731
0.66909114
0.68578745
0.70231689
0.71866125
0.73480355
0.75072813
0.76642075
0.78186865
0.79706064
0.81198719
0.82664043
0.84101416
0.85510367
0.86890546
0.88241658
0.89563348
0.90855022
0.92115549
0.93342819
0.94533078
0.95679981
0.96773292
0.97797236
0.98728713
0.99536163
1.00181045
1.00625464
1.00851180
1.00885800
1.00797967
1.00665314
1.00545434
1.00461891
1.00413899
1.00393160
1.00390386
1.00399076
1.00415046
1.00435805
1.00460025
1.00487693
1.00518859
1.00553077
1.00591289
1.00634026
1.00682736
1.00738538
1.00802854
1.00877545
1.00965133
1.01068678
1.01191982
1.01339519
1.01516639
1.01728551
1.01981099
1.02279083
1.02626860
1.03024476
1.03461892
1.03897647
1.04189016
1.03822305
1.01184728
0.93004845
0.77041153
0.59930443
0.45781861
0.34937066
0.26770231
0.20618401
0.15960875
0.12413886
0.09697726
0.07607534
0.05991942
0.04738123
0.03761338
0.02997542
0.02398088
0.01925866
0.01552468
0.01256083
0.01019911
0.00830982
0.00679251
0.00556919
0.00457911
0.00377481
0.00311908
0.00258266
0.00214242
0.00178005
0.00148097
0.00123350
0.00102829
0.00085780
0.00071592
0.00059768
0.00049902
0.00041664
0.00034779
0.00029023
0.00024210
0.00020183
0.00016816
0.00014000
0.00011647
0.00009680
0.00008038
0.00006668
0.00005526
0.00004574
0.00003782
0.00003124
0.00002577
0.00002123
0.00001747
0.00001435
0.00001178
0.00000966
0.00000790
0.00000646
0.00000527
0.00000430
0.00000350
0.00000284
0.00000231
0.00000187
0.00000151
0.00000122
0.00000099
0.00000080
0.00000064
0.00000051
0.00000041
0.00000033
0.00000026
0.00000021
0.00000017
0.00000013
0.00000011
0.00000008
0.00000007
0.00000005
0.00000004
0.00000003
0.00000003
0.00000002
0.00000002
0.00000001
0.00000001
0.00000001
0.00000001
0.00000000
0.00000000
0.00000000
0.00000000
0.00000000
0.00000000
0.00000000
0.00000000
0.00000000
0.00000000
0.00000000
0.00000000
0.00000000
0.00000000
0.00000000
0.00000000
0.00000000
0.00000000
0.00000000
0.00000000
0.00000000
0.00000000
0.00000000
0.00000000
0.00000000
0.00000000
0.00000000
0.00000000
0.00000000
0.00000000
0.00000000
0.00000000
0.00000000
0.00000000
0.00000000
0.00000000
0.00000000
0.00000000
0.00000000
0.00000000
0.00000000
0.00000000
0.00000000
0.00000000
0.00000000
0.00000000
0.00000000
0.00000000
0.00000000
0.00000000
0.00000000
0.00000000
0.00000000
0.00000000
0.00000000
0.00000000
0.00000000
0.00000000
0.00000000
0.00000000
0.00000000
0.00000000
0.00000000
0.00000000
0.00000000
0.00000000
0.00000000
0.00000000
0.00000000
0.00000000
0.00000000
0.00000000
0.00000000
0.00000000
0.00000000
0.00000000
0.00000000
0.00000000
0.00000000
0.00000000
0.00000000
0.00000000
0.00000000
0.00000000
0.00000000
0.00000000
0.00000000
0.00000000
0.00000000
0.00000000
0.00000000
0.00000000
0.00000000
0.00000000
0.00000000
0.00000000
0.00000000
0.00000000
0.00000000
0.00000000
0.00000000
0.00000000
0.00000000
0.00000000
0.00000000
0.00000000
0.00000000
0.00000000
0.00000000
0.00000000
0.00000000
0.00000000
0.00000000
0.00000000
0.00000000
0.00000000
0.00000000
0.00000000
0.00000000
0.00000000
0.00000000
0.00000000
0.00000000
0.00000000
0.00000000
0.00000000
0.00000000
0.00000000
0.00000000
0.00000000
0.00000000
0.00000000
0.00000000
0.00000000
0.00000000
0.00000000
0.00000000
0.00000000
0.00010792
0.00011055
0.00011586
0.00012394
0.00013494
0.00014907
0.00016658
0.00018778
0.00021304
0.00024280
0.00027757
0.00031793
0.00036454
0.00041815
0.00047961
0.00054987
0.00062997
0.00072111
0.00082458
0.00094183
0.00107447
0.00122424
0.00139309
0.00158313
0.00179668
0.00203629
0.00230470
0.00260492
0.00294021
0.00331409
0.00373036
0.00419314
0.00470683
0.00527618
0.00590626
0.00660250
0.00737067
0.00821693
0.00914780
0.01017019
0.01129140
0.01251913
0.01386145
0.01532683
0.01692414
0.01866259
0.02055180
0.02260171
0.02482262
0.02722512
0.02982012
0.03261876
0.03563242
0.03887268
0.04235126
0.04607997
0.05007070
0.05433533
0.05888568
0.06373346
0.06889019
0.07436715
0.08017529
0.08632518
0.09282693
0.09969008
0.10692357
0.11453565
0.12253377
0.13092457
0.13971373
0.14890594
0.15850485
0.16851294
0.17893153
0.18976067
0.20099913
0.21264433
0.22469232
0.23713773
0.24997378
0.26319227
0.27678353
0.29073649
0.30503866
0.31967618
0.33463384
0.34989516
0.36544241
0.38125671
0.39731810
0.41360563
0.43009746
0.44677096
0.46360283
0.48056921
0.49764584
0.51480811
0.53203131
0.54929063
0.56656142
0.58381924
0.60104002
0.61820019
0.63527681
0.65224765
0.66909134
0.68578747
0.70231666
0.71866067
0.73480249
0.75072641
0.76641814
0.78186485
0.79705525
0.81197972
0.82663027
0.84100058
0.85508588
0.86888266
0.88238815
0.89559927
0.90851098
0.92111349
0.93338795
0.94529966
0.95678801
0.96775173
0.97802915
0.98737571
0.99544916
1.00183075
1.00613536
1.00823695
1.00846592
1.00750671
1.00611144
1.00483642
1.00396362
1.00348017
1.00329157
1.00328694
1.00339707
1.00357381
1.00378952
1.00403717
1.00432163
1.00464523
1.00500469
1.00540385
1.00585628
1.00638116
1.00699631
1.00771891
1.00857222
1.00958600
1.01080064
1.01226174
1.01402083
1.01613093
1.01864371
1.02160873
1.02506852
1.02905885
1.03359442
1.03862544
1.04383135
1.04785100
1.04572600
1.02191287
0.94343436
0.78496622
0.60996562
0.46442512
0.35321329
0.26988384
0.20742369
0.16032659
0.12457070
0.09725219
0.07626260
0.06005572
0.04748595
0.03769683
0.03004332
0.02403659
0.01930442
0.01556213
0.01259129
0.01022371
0.00832953
0.00680819
0.00558157
0.00458881
0.00378237
0.00312493
0.00258716
0.00214587
0.00178268
0.00148295
0.00123500
0.00102942
0.00085864
0.00071654
0.00059814
0.00049937
0.00041689
0.00034798
0.00029037
0.00024219
0.00020191
0.00016821
0.00014004
0.00011650
0.00009682
0.00008040
0.00006669
0.00005527
0.00004575
0.00003783
0.00003124
0.00002577
0.00002123
0.00001747
0.00001435
0.00001178
0.00000966
0.00000790
0.00000646
0.00000527
0.00000430
0.00000350
0.00000284
0.00000231
0.00000187
0.00000151
0.00000122
0.00000099
0.00000080
0.00000064
0.00000051
0.00000041
0.00000033
0.00000026
0.00000021
0.00000017
0.00000013
0.00000011
0.00000008
0.00000007
0.00000005
0.00000004
0.00000003
0.00000003
0.00000002
0.00000002
0.00000001
0.00000001
0.00000001
0.00000001
0.00000000
0.00000000
0.00000000
0.00000000
0.00000000
0.00000000
0.00000000
0.00000000
0.00000000
0.00000000
0.00000000
0.00000000
0.00000000
0.00000000
0.00000000
0.00000000
0.00000000
0.00000000
0.00000000
0.00000000
0.00000000
0.00000000
0.00000000
0.00000000
0.00000000
0.00000000
0.00000000
0.00000000
0.00000000
0.00000000
0.00000000
0.00000000
0.00000000
0.00000000
0.00000000
0.00000000
0.00000000
0.00000000
0.00000000
0.00000000
0.00000000
0.00000000
0.00000000
0.00000000
0.00000000
0.00000000
0.00000000
0.00000000
0.00000000
0.00000000
0.00000000
0.00000000
0.00000000
0.00000000
0.00000000
0.00000000
0.00000000
0.00000000
0.00000000
0.00000000
0.00000000