# vtk DataFile Version 3.0
Concentration output
ASCII
DATASET STRUCTURED_POINTS
DIMENSIONS 398 98 1
ORIGIN 0 0 0
SPACING 0.03 0.03 1.0
POINT_DATA 39004
SCALARS Variable float 1
LOOKUP_TABLE default
0.00083328
0.00084487
0.00086816
0.00090337
0.00095084
0.00101100
0.00108443
0.00117180
0.00127391
0.00139168
0.00152615
0.00167852
0.00185009
0.00204231
0.00225679
0.00249526
0.00275962
0.00305193
0.00337442
0.00372947
0.00411966
0.00454774
0.00501665
0.00552951
0.00608965
0.00670060
0.00736610
0.00809008
0.00887671
0.00973036
0.01065562
0.01165730
0.01274043
0.01391026
0.01517226
0.01653210
0.01799568
0.01956910
0.02125864
0.02307080
0.02501226
0.02708983
0.02931053
0.03168150
0.03421001
0.03690343
0.03976925
0.04281501
0.04604831
0.04947677
0.05310801
0.05694962
0.06100914
0.06529402
0.06981161
0.07456908
0.07957345
0.08483149
0.09034976
0.09613450
0.10219164
0.10852677
0.11514504
0.12205123
0.12924962
0.13674399
0.14453762
0.15263320
0.16103283
0.16973802
0.17874960
0.18806774
0.19769192
0.20762092
0.21785278
0.22838480
0.23921355
0.25033483
0.26174369
0.27343442
0.28540057
0.29763494
0.31012962
0.32287598
0.33586470
0.34908581
0.36252870
0.37618214
0.39003437
0.40407308
0.41828548
0.43265835
0.44717808
0.46183070
0.47660198
0.49147745
0.50644244
0.52148218
0.53658182
0.55172653
0.56690148
0.58209198
0.59728346
0.61246160
0.62761228
0.64272173
0.65777649
0.67276349
0.68767005
0.70248397
0.71719346
0.73178723
0.74625447
0.76058483
0.77476848
0.78879606
0.80265870
0.81634805
0.82985632
0.84317636
0.85630183
0.86922749
0.88194969
0.89446716
0.90678245
0.91890420
0.93085109
0.94265845
0.95438964
0.96615590
0.97815183
0.99071631
1.00440368
1.01969092
1.03408870
1.03064364
1.02400737
1.01772746
1.01246868
1.00856169
1.00614958
1.00487359
1.00431147
1.00405736
1.00405258
1.00406486
1.00416697
1.00428568
1.00439990
1.00454046
1.00467248
1.00487178
1.00499545
1.00513880
1.00525265
1.00535137
1.00546172
1.00549761
1.00559104
1.00557410
1.00557729
1.00551962
1.00542378
1.00532193
1.00517708
1.00494490
1.00472589
1.00446780
1.00420009
1.00385218
1.00353506
1.00317119
1.00282568
1.00243301
1.00198462
1.00159879
1.00106993
1.00058774
1.00009119
0.99944933
0.99885622
0.99817016
0.99751758
0.99684289
0.99613137
0.99540787
0.99469155
0.99393423
0.99306303
0.99218630
0.99113526
0.98981568
0.98804113
0.98530039
0.98073243
0.97260918
0.95806531
0.93225228
0.88753062
0.81619093
0.71775504
0.60478049
0.49305101
0.39283903
0.30822128
0.23941094
0.18476808
0.14202994
0.10892659
0.08344386
0.06390176
0.04894796
0.03751731
0.02878225
0.02210542
0.01699867
0.01308935
0.01009353
0.00779504
0.00602935
0.00467116
0.00362497
0.00281799
0.00219460
0.00171231
0.00133861
0.00104857
0.00082309
0.00064749
0.00051048
0.00040338
0.00031949
0.00025365
0.00020186
0.00016103
0.00012877
0.00010322
0.00008293
0.00006678
0.00005389
0.00004359
0.00003533
0.00002869
0.00002334
0.00001901
0.00001552
0.00001268
0.00001038
0.00000850
0.00000697
0.00000572
0.00000470
0.00000386
0.00000318
0.00000261
0.00000215
0.00000177
0.00000145
0.00000120
0.00000098
0.00000081
0.00000067
0.00000055
0.00000045
0.00000037
0.00000030
0.00000025
0.00000020
0.00000017
0.00000014
0.00000011
0.00000009
0.00000007
0.00000006
0.00000005
0.00000004
0.00000003
0.00000003
0.00000002
0.00000002
0.00000001
0.00000001
0.00000001
0.00000001
0.00000001
0.00000000
0.00000000
0.00000000
0.00000000
0.00000000
0.00000000
0.00000000
0.00000000
0.00000000
0.00000000
0.00000000
0.00000000
0.00000000
0.00000000
0.00000000
0.00000000
0.00000000
0.00000000
0.00000000
0.00000000
0.00000000
0.00000000
0.00000000
0.00000000
0.00000000
0.00000000
0.00000000
0.00000000
0.00000000
0.00000000
0.00000000
0.00000000
0.00000000
0.00000000
0.00000000
0.00000000
0.00000000
0.00000000
0.00000000
0.00000000
0.00000000
0.00000000
0.00000000
0.00000000
0.00000000
0.00000000
0.00000000
0.00000000
0.00000000
0.00000000
0.00000000
0.00000000
0.00000000
0.00000000
0.00000000
0.00000000
0.00000000
0.00000000
0.00000000
0.00000000
0.00000000
0.00000000
0.00000000
0.00000000
0.00000000
0.00000000
0.00000000
0.00000000
0.00000000
0.00000000
0.00000000
0.00000000
0.00000000
0.00000000
0.00000000
0.00000000
0.00000000
0.00000000
0.00000000
0.00000000
0.00000000
0.00000000
0.00000000
0.00000000
0.00000000
0.00000000
0.00000000
0.00000000
0.00000000
0.00000000
0.00000000
0.00000000
0.00000000
0.00000000
0.00000000
0.00000000
0.00000000
0.00000000
0.00000000
0.00000000
0.00000000
0.00000000
0.00000000
0.00000000
0.00000000
0.00000000
0.00000000
0.00000000
0.00000000
0.00000000
0.00000000
0.00000000
0.00000000
0.00083328
0.00084487
0.00086816
0.00090337
0.00095084
0.00101100
0.00108443
0.00117180
0.00127391
0.00139168
0.00152615
0.00167852
0.00185009
0.00204231
0.00225679
0.00249526
0.00275962
0.00305193
0.00337442
0.00372947
0.00411966
0.00454774
0.00501665
0.00552951
0.00608965
0.00670060
0.00736610
0.00809008
0.00887671
0.00973036
0.01065562
0.01165730
0.01274043
0.01391026
0.01517226
0.01653210
0.01799568
0.01956909
0.02125864
0.02307080
0.02501225
0.02708983
0.02931053
0.03168150
0.03421000
0.03690343
0.03976925
0.04281501
0.04604831
0.04947677
0.05310801
0.05694961
0.06100914
0.06529402
0.06981160
0.07456908
0.07957344
0.08483149
0.09034975
0.09613449
0.10219163
0.10852675
0.11514503
0.12205122
0.12924960
0.13674397
0.14453760
0.15263317
0.16103280
0.16973799
0.17874956
0.18806770
0.19769188
0.20762087
0.21785272
0.22838474
0.23921348
0.25033475
0.26174360
0.27343432
0.28540046
0.29763482
0.31012948
0.32287583
0.33586454
0.34908563
0.36252850
0.37618192
0.39003413
0.40407282
0.41828520
0.43265804
0.44717774
0.46183034
0.47660160
0.49147703
0.50644199
0.52148170
0.53658133
0.55172600
0.56690093
0.58209141
0.59728288
0.61246100
0.62761168
0.64272112
0.65777589
0.67276291
0.68766951
0.70248348
0.71719305
0.73178694
0.74625433
0.76058491
0.77476884
0.78879680
0.80265992
0.81634988
0.82985889
0.84317975
0.85630603
0.86923222
0.88195417
0.89446964
0.90677940
0.91888891
0.93081116
0.94257138
0.95421457
0.96581756
0.97750712
0.98948164
1.00199089
1.01504582
1.02675909
1.02748970
1.02273182
1.01670751
1.01132096
1.00733845
1.00528265
1.00438422
1.00402749
1.00384175
1.00387785
1.00397806
1.00409844
1.00424752
1.00430183
1.00438724
1.00458526
1.00476666
1.00498881
1.00508086
1.00514054
1.00529566
1.00539625
1.00548216
1.00552007
1.00556101
1.00554590
1.00552264
1.00532877
1.00525597
1.00517181
1.00495171
1.00470571
1.00441073
1.00409134
1.00378198
1.00346033
1.00324643
1.00281728
1.00246839
1.00199973
1.00159952
1.00104076
1.00062392
1.00012647
0.99942243
0.99894112
0.99832878
0.99770318
0.99708565
0.99636016
0.99569198
0.99508936
0.99442504
0.99366547
0.99308910
0.99247370
0.99178102
0.99078395
0.98970198
0.98790437
0.98433907
0.97686487
0.95983938
0.92392498
0.85697033
0.75422859
0.63100637
0.50954776
0.40243987
0.31356640
0.24230502
0.18630533
0.14283392
0.10934136
0.08365516
0.06400827
0.04900139
0.03754431
0.02879634
0.02211332
0.01700362
0.01309286
0.01009628
0.00779733
0.00603130
0.00467281
0.00362637
0.00281915
0.00219555
0.00171309
0.00133923
0.00104906
0.00082347
0.00064779
0.00051071
0.00040356
0.00031963
0.00025376
0.00020194
0.00016109
0.00012881
0.00010325
0.00008295
0.00006680
0.00005391
0.00004360
0.00003534
0.00002869
0.00002334
0.00001902
0.00001552
0.00001268
0.00001038
0.00000850
0.00000697
0.00000572
0.00000470
0.00000386
0.00000318
0.00000261
0.00000215
0.00000177
0.00000145
0.00000120
0.00000098
0.00000081
0.00000067
0.00000055
0.00000045
0.00000037
0.00000030
0.00000025
0.00000020
0.00000017
0.00000014
0.00000011
0.00000009
0.00000007
0.00000006
0.00000005
0.00000004
0.00000003
0.00000003
0.00000002
0.00000002
0.00000001
0.00000001
0.00000001
0.00000001
0.00000001
0.00000000
0.00000000
0.00000000
0.00000000
0.00000000
0.00000000
0.00000000
0.00000000
0.00000000
0.00000000
0.00000000
0.00000000
0.00000000
0.00000000
0.00000000
0.00000000
0.00000000
0.00000000
0.00000000
0.00000000
0.00000000
0.00000000
0.00000000
0.00000000
0.00000000
0.00000000
0.00000000
0.00000000
0.00000000
0.00000000
0.00000000
0.00000000
0.00000000
0.00000000
0.00000000
0.00000000
0.00000000
0.00000000
0.00000000
0.00000000
0.00000000
0.00000000
0.00000000
0.00000000
0.00000000
0.00000000
0.00000000
0.00000000
0.00000000
0.00000000
0.00000000
0.00000000
0.00000000
0.00000000
0.00000000
0.00000000
0.00000000
0.00000000
0.00000000
0.00000000
0.00000000
0.00000000
0.00000000
0.00000000
0.00000000
0.00000000
0.00000000
0.00000000
0.00000000
0.00000000
0.00000000
0.00000000
0.00000000
0.00000000
0.00000000
0.00000000
0.00000000
0.00000000
0.00000000
0.00000000
0.00000000
0.00000000
0.00000000
0.00000000
0.00000000
0.00000000
0.00000000
0.00000000
0.00000000
0.00000000
0.00000000
0.00000000
0.00000000
0.00000000
0.00000000
0.00000000
0.00000000
0.00000000
0.00000000
0.00000000
0.00000000
0.00000000
0.00000000
0.00000000
0.00000000
0.00000000
0.00000000
0.00000000
0.00000000
0.00000000
0.00000000
0.00000000
0.00000000
0.00083328
0.00084487
0.00086816
0.00090337
0.00095084
0.00101100
0.00108443
0.00117180
0.00127391
0.00139168
0.00152615
0.00167852
0.00185009
0.00204231
0.00225679
0.00249526
0.00275962
0.00305193
0.00337442
0.00372947
0.00411966
0.00454774
0.00501665
0.00552951
0.00608965
0.00670060
0.00736610
0.00809008
0.00887671
0.00973036
0.01065562
0.01165730
0.01274043
0.01391026
0.01517226
0.01653210
0.01799568
0.01956909
0.02125864
0.02307080
0.02501225
0.02708983
0.02931053
0.03168150
0.03421000
0.03690343
0.03976925
0.04281501
0.04604831
0.04947676
0.05310800
0.05694961
0.06100913
0.06529401
0.06981159
0.07456906
0.07957343
0.08483147
0.09034974
0.09613447
0.10219161
0.10852673
0.11514501
0.12205119
0.12924957
0.13674393
0.14453755
0.15263312
0.16103275
0.16973792
0.17874949
0.18806761
0.19769178
0.20762077
0.21785261
0.22838461
0.23921334
0.25033459
0.26174342
0.27343412
0.28540023
0.29763457
0.31012921
0.32287553
0.33586420
0.34908526
0.36252809
0.37618148
0.39003365
0.40407229
0.41828462
0.43265742
0.44717707
0.46182961
0.47660081
0.49147619
0.50644110
0.52148075
0.53658032
0.55172494
0.56689982
0.58209025
0.59728169
0.61245978
0.62761044
0.64271989
0.65777467
0.67276172
0.68766840
0.70248248
0.71719221
0.73178632
0.74625402
0.76058502
0.77476953
0.78879825
0.80266237
0.81635361
0.82986419
0.84318688
0.85631509
0.86924294
0.88196542
0.89447869
0.90678051
0.91887097
0.93075358
0.94243692
0.95393691
0.96527882
0.97649644
0.98761794
0.99860097
1.00910591
1.01781466
1.02139219
1.02005057
1.01492708
1.00931198
1.00541251
1.00401567
1.00372914
1.00366151
1.00370569
1.00382980
1.00391642
1.00398190
1.00398177
1.00409955
1.00428311
1.00445970
1.00451972
1.00473525
1.00489397
1.00502902
1.00503952
1.00516582
1.00533784
1.00548040
1.00539622
1.00534292
1.00529983
1.00520998
1.00505944
1.00501527
1.00465278
1.00449763
1.00427346
1.00404268
1.00369015
1.00342532
1.00311394
1.00282756
1.00255008
1.00207031
1.00159766
1.00127656
1.00076299
1.00030247
0.99967089
0.99922270
0.99870495
0.99815219
0.99757156
0.99706363
0.99655350
0.99634765
0.99606823
0.99575492
0.99571214
0.99592838
0.99655206
0.99733269
0.99860125
1.00020092
1.00235984
1.00360692
0.99989315
0.97980070
0.92503620
0.82035350
0.67951089
0.53983150
0.41986245
0.32316578
0.24745691
0.18901990
0.14424230
0.11006156
0.08401833
0.06418918
0.04909095
0.03758906
0.02881961
0.02212652
0.01701216
0.01309918
0.01010143
0.00780172
0.00603509
0.00467606
0.00362913
0.00282145
0.00219745
0.00171463
0.00134046
0.00105004
0.00082425
0.00064839
0.00051118
0.00040392
0.00031991
0.00025397
0.00020210
0.00016121
0.00012891
0.00010332
0.00008300
0.00006684
0.00005394
0.00004362
0.00003535
0.00002870
0.00002335
0.00001902
0.00001553
0.00001269
0.00001038
0.00000850
0.00000697
0.00000572
0.00000470
0.00000386
0.00000318
0.00000261
0.00000215
0.00000177
0.00000145
0.00000120
0.00000098
0.00000081
0.00000067
0.00000055
0.00000045
0.00000037
0.00000030
0.00000025
0.00000020
0.00000017
0.00000014
0.00000011
0.00000009
0.00000007
0.00000006
0.00000005
0.00000004
0.00000003
0.00000003
0.00000002
0.00000002
0.00000001
0.00000001
0.00000001
0.00000001
0.00000001
0.00000000
0.00000000
0.00000000
0.00000000
0.00000000
0.00000000
0.00000000
0.00000000
0.00000000
0.00000000
0.00000000
0.00000000
0.00000000
0.00000000
0.00000000
0.00000000
0.00000000
0.00000000
0.00000000
0.00000000
0.00000000
0.00000000
0.00000000
0.00000000
0.00000000
0.00000000
0.00000000
0.00000000
0.00000000
0.00000000
0.00000000
0.00000000
0.00000000
0.00000000
0.00000000
0.00000000
0.00000000
0.00000000
0.00000000
0.00000000
0.00000000
0.00000000
0.00000000
0.00000000
0.00000000
0.00000000
0.00000000
0.00000000
0.00000000
0.00000000
0.00000000
0.00000000
0.00000000
0.00000000
0.00000000
0.00000000
0.00000000
0.00000000
0.00000000
0.00000000
0.00000000
0.00000000
0.00000000
0.00000000
0.00000000
0.00000000
0.00000000
0.00000000
0.00000000
0.00000000
0.00000000
0.00000000
0.00000000
0.00000000
0.00000000
0.00000000
0.00000000
0.00000000
0.00000000
0.00000000
0.00000000
0.00000000
0.00000000
0.00000000
0.00000000
0.00000000
0.00000000
0.00000000
0.00000000
0.00000000
0.00000000
0.00000000
0.00000000
0.00000000
0.00000000
0.00000000
0.00000000
0.00000000
0.00000000
0.00000000
0.00000000
0.00000000
0.00000000
0.00000000
0.00000000
0.00000000
0.00000000
0.00000000
0.00000000
0.00000000
0.00000000
0.00000000
0.00000000
0.00083328
0.00084487
0.00086816
0.00090337
0.00095084
0.00101100
0.00108443
0.00117180
0.00127391
0.00139168
0.00152615
0.00167852
0.00185009
0.00204231
0.00225679
0.00249526
0.00275962
0.00305193
0.00337442
0.00372947
0.00411966
0.00454774
0.00501665
0.00552951
0.00608965
0.00670060
0.00736610
0.00809008
0.00887671
0.00973036
0.01065562
0.01165730
0.01274043
0.01391026
0.01517226
0.01653210
0.01799568
0.01956909
0.02125864
0.02307080
0.02501225
0.02708983
0.02931053
0.03168149
0.03421000
0.03690342
0.03976924
0.04281500
0.04604830
0.04947676
0.05310799
0.05694960
0.06100912
0.06529400
0.06981158
0.07456905
0.07957341
0.08483145
0.09034971
0.09613445
0.10219158
0.10852670
0.11514497
0.12205114
0.12924952
0.13674388
0.14453749
0.15263305
0.16103266
0.16973783
0.17874938
0.18806749
0.19769165
0.20762061
0.21785243
0.22838442
0.23921312
0.25033435
0.26174315
0.27343382
0.28539990
0.29763420
0.31012880
0.32287507
0.33586370
0.34908471
0.36252748
0.37618081
0.39003292
0.40407149
0.41828375
0.43265648
0.44717605
0.46182851
0.47659962
0.49147492
0.50643974
0.52147931
0.53657879
0.55172333
0.56689813
0.58208849
0.59727986
0.61245791
0.62760854
0.64271797
0.65777278
0.67275988
0.68766665
0.70248089
0.71719085
0.73178528
0.74625345
0.76058509
0.77477047
0.78880036
0.80266603
0.81635929
0.82987243
0.84319827
0.85633010
0.86926169
0.88198722
0.89450111
0.90679786
0.91887156
0.93071522
0.94231943
0.95366980
0.96474167
0.97548857
0.98581669
0.99552693
1.00419159
1.01095734
1.01454885
1.01463650
1.01206218
1.00856559
1.00595065
1.00456884
1.00392861
1.00366323
1.00358277
1.00358963
1.00361523
1.00367927
1.00372889
1.00379033
1.00390922
1.00402181
1.00415460
1.00433462
1.00446843
1.00462162
1.00469511
1.00475463
1.00484390
1.00495053
1.00498340
1.00496573
1.00490341
1.00484140
1.00475929
1.00462704
1.00440163
1.00421300
1.00402111
1.00377960
1.00352538
1.00324308
1.00297066
1.00267413
1.00237775
1.00207113
1.00169285
1.00134387
1.00095276
1.00047881
1.00002126
0.99953708
0.99907404
0.99862138
0.99820423
0.99788024
0.99766436
0.99765278
0.99777126
0.99813022
0.99879640
0.99977474
1.00127025
1.00325486
1.00593051
1.00938139
1.01354881
1.01788074
1.01994462
1.01270561
0.97923972
0.89127592
0.73826169
0.57729881
0.44134707
0.33487800
0.25366681
0.19224876
0.14589240
0.11089007
0.08442672
0.06438702
0.04918581
0.03763506
0.02884327
0.02214038
0.01702184
0.01310703
0.01010830
0.00780787
0.00604055
0.00468083
0.00363321
0.00282488
0.00220027
0.00171692
0.00134231
0.00105151
0.00082540
0.00064929
0.00051188
0.00040446
0.00032032
0.00025428
0.00020234
0.00016139
0.00012904
0.00010342
0.00008308
0.00006689
0.00005398
0.00004365
0.00003537
0.00002872
0.00002336
0.00001903
0.00001553
0.00001269
0.00001039
0.00000851
0.00000698
0.00000573
0.00000470
0.00000386
0.00000318
0.00000261
0.00000215
0.00000177
0.00000145
0.00000120
0.00000098
0.00000081
0.00000067
0.00000055
0.00000045
0.00000037
0.00000030
0.00000025
0.00000020
0.00000017
0.00000014
0.00000011
0.00000009
0.00000007
0.00000006
0.00000005
0.00000004
0.00000003
0.00000003
0.00000002
0.00000002
0.00000001
0.00000001
0.00000001
0.00000001
0.00000001
0.00000000
0.00000000
0.00000000
0.00000000
0.00000000
0.00000000
0.00000000
0.00000000
0.00000000
0.00000000
0.00000000
0.00000000
0.00000000
0.00000000
0.00000000
0.00000000
0.00000000
0.00000000
0.00000000
0.00000000
0.00000000
0.00000000
0.00000000
0.00000000
0.00000000
0.00000000
0.00000000
0.00000000
0.00000000
0.00000000
0.00000000
0.00000000
0.00000000
0.00000000
0.00000000
0.00000000
0.00000000
0.00000000
0.00000000
0.00000000
0.00000000
0.00000000
0.00000000
0.00000000
0.00000000
0.00000000
0.00000000
0.00000000
0.00000000
0.00000000
0.00000000
0.00000000
0.00000000
0.00000000
0.00000000
0.00000000
0.00000000
0.00000000
0.00000000
0.00000000
0.00000000
0.00000000
0.00000000
0.00000000
0.00000000
0.00000000
0.00000000
0.00000000
0.00000000
0.00000000
0.00000000
0.00000000
0.00000000
0.00000000
0.00000000
0.00000000
0.00000000
0.00000000
0.00000000
0.00000000
0.00000000
0.00000000
0.00000000
0.00000000
0.00000000
0.00000000
0.00000000
0.00000000
0.00000000
0.00000000
0.00000000
0.00000000
0.00000000
0.00000000
0.00000000
0.00000000
0.00000000
0.00000000
0.00000000
0.00000000
0.00000000
0.00000000
0.00000000
0.00000000
0.00000000
0.00000000
0.00000000
0.00000000
0.00000000
0.00000000
0.00000000
0.00000000
0.00000000
0.00083328
0.00084487
0.00086816
0.00090337
0.00095084
0.00101100
0.00108443
0.00117180
0.00127391
0.00139168
0.00152615
0.00167852
0.00185009
0.00204231
0.00225679
0.00249526
0.00275962
0.00305193
0.00337442
0.00372947
0.00411966
0.00454774
0.00501665
0.00552951
0.00608965
0.00670060
0.00736610
0.00809008
0.00887671
0.00973036
0.01065562
0.01165730
0.01274043
0.01391026
0.01517225
0.01653210
0.01799568
0.01956909
0.02125864
0.02307080
0.02501225
0.02708983
0.02931053
0.03168149
0.03421000
0.03690342
0.03976924
0.04281500
0.04604830
0.04947675
0.05310798
0.05694959
0.06100911
0.06529398
0.06981156
0.07456903
0.07957339
0.08483142
0.09034968
0.09613441
0.10219154
0.10852665
0.11514491
0.12205108
0.12924945
0.13674380
0.14453740
0.15263295
0.16103255
0.16973770
0.17874923
0.18806733
0.19769146
0.20762040
0.21785220
0.22838416
0.23921283
0.25033402
0.26174278
0.27343341
0.28539945
0.29763370
0.31012824
0.32287446
0.33586302
0.34908396
0.36252666
0.37617991
0.39003193
0.40407041
0.41828258
0.43265520
0.44717466
0.46182702
0.47659802
0.49147319
0.50643789
0.52147734
0.53657670
0.55172113
0.56689582
0.58208608
0.59727736
0.61245534
0.62760592
0.64271533
0.65777014
0.67275731
0.68766419
0.70247861
0.71718887
0.73178373
0.74625250
0.76058498
0.77477151
0.78880298
0.80267079
0.81636688
0.82988373
0.84321432
0.85635201
0.86929050
0.88202348
0.89454417
0.90684449
0.91891367
0.93073595
0.94228698
0.95352793
0.96439619
0.97479055
0.98454815
0.99341066
1.00098266
1.00671425
1.01005253
1.01092093
1.00984525
1.00788998
1.00608752
1.00481422
1.00405084
1.00363781
1.00341281
1.00331465
1.00328617
1.00330465
1.00334749
1.00339361
1.00349379
1.00360899
1.00374315
1.00388209
1.00401626
1.00414306
1.00424491
1.00434122
1.00442354
1.00448658
1.00451418
1.00451191
1.00448307
1.00442479
1.00433521
1.00420389
1.00403786
1.00385553
1.00367347
1.00347144
1.00325756
1.00302855
1.00280170
1.00255901
1.00231342
1.00205178
1.00175738
1.00144894
1.00110876
1.00072370
1.00031551
0.99989248
0.99946737
0.99907000
0.99874303
0.99853949
0.99850887
0.99870908
0.99917855
0.99997897
1.00117355
1.00282110
1.00501937
1.00785424
1.01140844
1.01573553
1.02079865
1.02617618
1.03046470
1.02920391
1.00963201
0.94073468
0.78968802
0.61229492
0.46159259
0.34583824
0.25938371
0.19515408
0.14733173
0.11158289
0.08474900
0.06453127
0.04924824
0.03766223
0.02885669
0.02214930
0.01702974
0.01311490
0.01011614
0.00781539
0.00604749
0.00468701
0.00363855
0.00282938
0.00220400
0.00171996
0.00134475
0.00105344
0.00082692
0.00065048
0.00051280
0.00040516
0.00032086
0.00025469
0.00020265
0.00016163
0.00012922
0.00010355
0.00008318
0.00006697
0.00005404
0.00004370
0.00003541
0.00002874
0.00002338
0.00001905
0.00001554
0.00001270
0.00001039
0.00000851
0.00000698
0.00000573
0.00000470
0.00000387
0.00000318
0.00000261
0.00000215
0.00000177
0.00000146
0.00000120
0.00000098
0.00000081
0.00000067
0.00000055
0.00000045
0.00000037
0.00000030
0.00000025
0.00000020
0.00000017
0.00000014
0.00000011
0.00000009
0.00000007
0.00000006
0.00000005
0.00000004
0.00000003
0.00000003
0.00000002
0.00000002
0.00000001
0.00000001
0.00000001
0.00000001
0.00000001
0.00000000
0.00000000
0.00000000
0.00000000
0.00000000
0.00000000
0.00000000
0.00000000
0.00000000
0.00000000
0.00000000
0.00000000
0.00000000
0.00000000
0.00000000
0.00000000
0.00000000
0.00000000
0.00000000
0.00000000
0.00000000
0.00000000
0.00000000
0.00000000
0.00000000
0.00000000
0.00000000
0.00000000
0.00000000
0.00000000
0.00000000
0.00000000
0.00000000
0.00000000
0.00000000
0.00000000
0.00000000
0.00000000
0.00000000
0.00000000
0.00000000
0.00000000
0.00000000
0.00000000
0.00000000
0.00000000
0.00000000
0.00000000
0.00000000
0.00000000
0.00000000
0.00000000
0.00000000
0.00000000
0.00000000
0.00000000
0.00000000
0.00000000
0.00000000
0.00000000
0.00000000
0.00000000
0.00000000
0.00000000
0.00000000
0.00000000
0.00000000
0.00000000
0.00000000
0.00000000
0.00000000
0.00000000
0.00000000
0.00000000
0.00000000
0.00000000
0.00000000
0.00000000
0.00000000
0.00000000
0.00000000
0.00000000
0.00000000
0.00000000
0.00000000
0.00000000
0.00000000
0.00000000
0.00000000
0.00000000
0.00000000
0.00000000
0.00000000
0.00000000
0.00000000
0.00000000
0.00000000
0.00000000
0.00000000
0.00000000
0.00000000
0.00000000
0.00000000
0.00000000
0.00000000
0.00000000
0.00000000
0.00000000
0.00000000
0.00000000
0.00000000
0.00000000
0.00000000
0.00083328
0.00084487
0.00086816
0.00090337
0.00095084
0.00101100
0.00108443
0.00117180
0.00127391
0.00139168
0.00152615
0.00167852
0.00185009
0.00204231
0.00225679
0.00249526
0.00275962
0.00305193
0.00337442
0.00372947
0.00411966
0.00454774
0.00501665
0.00552951
0.00608965
0.00670060
0.00736610
0.00809008
0.00887671
0.00973036
0.01065562
0.01165730
0.01274043
0.01391026
0.01517225
0.01653210
0.01799568
0.01956909
0.02125864
0.02307080
0.02501225
0.02708982
0.02931052
0.03168149
0.03420999
0.03690341
0.03976923
0.04281499
0.04604829
0.04947674
0.05310797
0.05694957
0.06100909
0.06529397
0.06981154
0.07456900
0.07957336
0.08483139
0.09034964
0.09613437
0.10219149
0.10852659
0.11514485
0.12205101
0.12924936
0.13674370
0.14453728
0.15263282
0.16103240
0.16973753
0.17874905
0.18806712
0.19769123
0.20762014
0.21785191
0.22838383
0.23921246
0.25033361
0.26174232
0.27343290
0.28539888
0.29763306
0.31012754
0.32287368
0.33586216
0.34908302
0.36252562
0.37617877
0.39003068
0.40406905
0.41828109
0.43265358
0.44717290
0.46182511
0.47659596
0.49147099
0.50643553
0.52147482
0.53657403
0.55171830
0.56689285
0.58208297
0.59727413
0.61245200
0.62760250
0.64271187
0.65776667
0.67275389
0.68766089
0.70247553
0.71718612
0.73178148
0.74625097
0.76058447
0.77477243
0.78880586
0.80267636
0.81637612
0.82989789
0.84323498
0.85638116
0.86933044
0.88207670
0.89461296
0.90693015
0.91901508
0.93084710
0.94239295
0.95359896
0.96437978
0.97460286
0.98406984
0.99249915
0.99952453
1.00474177
1.00785958
1.00895158
1.00848471
1.00721067
1.00582177
1.00469767
1.00392427
1.00343603
1.00314476
1.00298114
1.00290252
1.00288069
1.00290015
1.00295027
1.00303662
1.00314635
1.00327462
1.00340892
1.00354327
1.00367093
1.00378574
1.00388722
1.00397073
1.00403097
1.00406501
1.00407311
1.00405202
1.00399957
1.00391677
1.00380075
1.00365945
1.00350114
1.00333130
1.00315335
1.00297466
1.00279440
1.00261633
1.00243579
1.00225032
1.00205150
1.00182967
1.00157888
1.00128948
1.00095790
1.00058211
1.00017302
0.99975546
0.99936747
0.99906456
0.99891119
0.99897260
0.99931317
0.99999657
1.00108551
1.00264448
1.00473781
1.00743466
1.01080572
1.01490607
1.01975977
1.02530474
1.03123653
1.03654681
1.03791908
1.02457906
0.96652224
0.82245479
0.63615917
0.47551503
0.35321281
0.26307787
0.19691195
0.14811767
0.11190223
0.08485765
0.06455373
0.04924192
0.03765134
0.02884978
0.02214803
0.01703318
0.01312142
0.01012424
0.00782394
0.00605573
0.00469451
0.00364510
0.00283495
0.00220862
0.00172372
0.00134777
0.00105584
0.00082880
0.00065194
0.00051393
0.00040604
0.00032153
0.00025520
0.00020304
0.00016192
0.00012944
0.00010372
0.00008330
0.00006706
0.00005411
0.00004375
0.00003544
0.00002877
0.00002340
0.00001906
0.00001555
0.00001271
0.00001040
0.00000852
0.00000698
0.00000573
0.00000471
0.00000387
0.00000318
0.00000261
0.00000215
0.00000177
0.00000146
0.00000120
0.00000098
0.00000081
0.00000067
0.00000055
0.00000045
0.00000037
0.00000030
0.00000025
0.00000020
0.00000017
0.00000014
0.00000011
0.00000009
0.00000007
0.00000006
0.00000005
0.00000004
0.00000003
0.00000003
0.00000002
0.00000002
0.00000001
0.00000001
0.00000001
0.00000001
0.00000001
0.00000000
0.00000000
0.00000000
0.00000000
0.00000000
0.00000000
0.00000000
0.00000000
0.00000000
0.00000000
0.00000000
0.00000000
0.00000000
0.00000000
0.00000000
0.00000000
0.00000000
0.00000000
0.00000000
0.00000000
0.00000000
0.00000000
0.00000000
0.00000000
0.00000000
0.00000000
0.00000000
0.00000000
0.00000000
0.00000000
0.00000000
0.00000000
0.00000000
0.00000000
0.00000000
0.00000000
0.00000000
0.00000000
0.00000000
0.00000000
0.00000000
0.00000000
0.00000000
0.00000000
0.00000000
0.00000000
0.00000000
0.00000000
0.00000000
0.00000000
0.00000000
0.00000000
0.00000000
0.00000000
0.00000000
0.00000000
0.00000000
0.00000000
0.00000000
0.00000000
0.00000000
0.00000000
0.00000000
0.00000000
0.00000000
0.00000000
0.00000000
0.00000000
0.00000000
0.00000000
0.00000000
0.00000000
0.00000000
0.00000000
0.00000000
0.00000000
0.00000000
0.00000000
0.00000000
0.00000000
0.00000000
0.00000000
0.00000000
0.00000000
0.00000000
0.00000000
0.00000000
0.00000000
0.00000000
0.00000000
0.00000000
0.00000000
0.00000000
0.00000000
0.00000000
0.00000000
0.00000000
0.00000000
0.00000000
0.00000000
0.00000000
0.00000000
0.00000000
0.00000000
0.00000000
0.00000000
0.00000000
0.00000000
0.00000000
0.00000000
0.00000000
0.00000000
0.00000000
0.00083328
0.00084487
0.00086816
0.00090337
0.00095084
0.00101100
0.00108443
0.00117180
0.00127391
0.00139168
0.00152615
0.00167852
0.00185009
0.00204231
0.00225679
0.00249526
0.00275962
0.00305193
0.00337442
0.00372947
0.00411966
0.00454774
0.00501665
0.00552951
0.00608965
0.00670060
0.00736610
0.00809008
0.00887671
0.00973036
0.01065562
0.01165730
0.01274043
0.01391026
0.01517225
0.01653209
0.01799567
0.01956909
0.02125863
0.02307080
0.02501224
0.02708982
0.02931052
0.03168148
0.03420998
0.03690341
0.03976922
0.04281498
0.04604827
0.04947673
0.05310796
0.05694956
0.06100907
0.06529394
0.06981151
0.07456897
0.07957332
0.08483135
0.09034960
0.09613431
0.10219143
0.10852652
0.11514476
0.12205091
0.12924925
0.13674358
0.14453715
0.15263266
0.16103223
0.16973734
0.17874883
0.18806687
0.19769094
0.20761982
0.21785155
0.22838342
0.23921201
0.25033311
0.26174176
0.27343227
0.28539818
0.29763229
0.31012668
0.32287273
0.33586112
0.34908186
0.36252435
0.37617737
0.39002915
0.40406737
0.41827926
0.43265159
0.44717075
0.46182278
0.47659345
0.49146828
0.50643263
0.52147172
0.53657073
0.55171481
0.56688916
0.58207911
0.59727010
0.61244782
0.62759820
0.64270749
0.65776226
0.67274950
0.68765662
0.70247147
0.71718242
0.73177834
0.74624863
0.76058329
0.77477289
0.78880861
0.80268229
0.81638644
0.82991422
0.84325951
0.85641675
0.86938082
0.88214659
0.89470820
0.90705767
0.91918264
0.93106263
0.94266321
0.95392728
0.96476254
0.97502493
0.98449926
0.99288262
0.99978639
1.00479714
1.00765170
1.00851035
1.00795029
1.00668532
1.00535229
1.00427925
1.00353472
1.00304947
1.00274311
1.00255663
1.00245307
1.00240942
1.00241195
1.00245367
1.00253278
1.00264279
1.00277455
1.00291626
1.00305823
1.00319361
1.00331764
1.00342656
1.00351676
1.00358446
1.00362717
1.00364301
1.00362936
1.00358467
1.00350874
1.00340329
1.00327398
1.00312890
1.00297562
1.00282299
1.00267853
1.00254403
1.00241929
1.00229982
1.00217979
1.00204919
1.00189728
1.00171148
1.00147800
1.00118426
1.00082208
1.00039614
0.99993164
0.99947867
0.99911007
0.99890688
0.99895161
0.99932113
1.00008619
1.00131302
1.00306454
1.00540041
1.00837826
1.01204926
1.01645112
1.02159263
1.02741453
1.03366662
1.03947636
1.04178827
1.03016445
0.97452701
0.83331105
0.64385768
0.47957473
0.35494861
0.26361215
0.19690631
0.14791750
0.11166938
0.08465702
0.06440353
0.04914001
0.03758839
0.02881533
0.02213294
0.01703035
0.01312573
0.01013220
0.00783333
0.00606518
0.00470328
0.00365285
0.00284155
0.00221410
0.00172819
0.00135135
0.00105868
0.00083104
0.00065368
0.00051527
0.00040707
0.00032231
0.00025580
0.00020349
0.00016226
0.00012970
0.00010391
0.00008345
0.00006717
0.00005419
0.00004381
0.00003549
0.00002881
0.00002342
0.00001908
0.00001557
0.00001272
0.00001040
0.00000852
0.00000699
0.00000573
0.00000471
0.00000387
0.00000318
0.00000261
0.00000215
0.00000177
0.00000146
0.00000120
0.00000099
0.00000081
0.00000067
0.00000055
0.00000045
0.00000037
0.00000030
0.00000025
0.00000020
0.00000017
0.00000014
0.00000011
0.00000009
0.00000007
0.00000006
0.00000005
0.00000004
0.00000003
0.00000003
0.00000002
0.00000002
0.00000001
0.00000001
0.00000001
0.00000001
0.00000001
0.00000000
0.00000000
0.00000000
0.00000000
0.00000000
0.00000000
0.00000000
0.00000000
0.00000000
0.00000000
0.00000000
0.00000000
0.00000000
0.00000000
0.00000000
0.00000000
0.00000000
0.00000000
0.00000000
0.00000000
0.00000000
0.00000000
0.00000000
0.00000000
0.00000000
0.00000000
0.00000000
0.00000000
0.00000000
0.00000000
0.00000000
0.00000000
0.00000000
0.00000000
0.00000000
0.00000000