# vtk DataFile Version 3.0
Concentration output
ASCII
DATASET STRUCTURED_POINTS
DIMENSIONS 398 98 1
ORIGIN 0 0 0
SPACING 0.03 0.03 1.0
POINT_DATA 39004
SCALARS Variable float 1
LOOKUP_TABLE default
0.00289025
0.00291631
0.00296857
0.00304732
0.00315299
0.00328616
0.00344755
0.00363804
0.00385863
0.00411049
0.00439493
0.00471341
0.00506755
0.00545910
0.00588999
0.00636227
0.00687818
0.00744009
0.00805054
0.00871222
0.00942796
0.01020077
0.01103382
0.01193040
0.01289399
0.01392820
0.01503680
0.01622371
0.01749298
0.01884881
0.02029554
0.02183765
0.02347972
0.02522647
0.02708273
0.02905344
0.03114363
0.03335841
0.03570300
0.03818264
0.04080268
0.04356846
0.04648539
0.04955889
0.05279436
0.05619721
0.05977281
0.06352649
0.06746350
0.07158905
0.07590819
0.08042592
0.08514704
0.09007623
0.09521799
0.10057662
0.10615620
0.11196058
0.11799335
0.12425784
0.13075707
0.13749375
0.14447027
0.15168867
0.15915063
0.16685743
0.17480999
0.18300879
0.19145392
0.20014502
0.20908129
0.21826149
0.22768393
0.23734644
0.24724641
0.25738075
0.26774590
0.27833785
0.28915213
0.30018381
0.31142751
0.32287743
0.33452733
0.34637054
0.35840004
0.37060838
0.38298777
0.39553007
0.40822681
0.42106923
0.43404829
0.44715469
0.46037890
0.47371120
0.48714170
0.50066033
0.51425695
0.52792129
0.54164305
0.55541186
0.56921737
0.58304924
0.59689717
0.61075093
0.62460039
0.63843551
0.65224639
0.66602331
0.67975669
0.69343715
0.70705552
0.72060287
0.73407053
0.74745011
0.76073357
0.77391320
0.78698172
0.79993233
0.81275872
0.82545517
0.83801654
0.85043833
0.86271667
0.87484822
0.88683014
0.89865994
0.91033549
0.92185504
0.93321794
0.94442614
0.95548774
0.96642404
0.97728238
0.98815618
0.99920243
1.01057626
1.02168520
1.02766900
1.02451107
1.01924571
1.01396836
1.00963752
1.00667888
1.00491811
1.00395416
1.00347068
1.00315007
1.00302384
1.00298462
1.00294714
1.00293629
1.00293362
1.00294772
1.00302718
1.00303678
1.00305996
1.00310352
1.00314054
1.00318892
1.00317276
1.00314454
1.00309175
1.00304991
1.00296161
1.00291772
1.00282971
1.00269109
1.00254749
1.00237987
1.00217967
1.00197489
1.00176277
1.00156052
1.00133901
1.00108303
1.00078311
1.00055004
1.00024638
0.99994706
0.99961443
0.99928187
0.99900720
0.99874088
0.99845043
0.99818382
0.99790346
0.99765531
0.99749682
0.99737828
0.99722892
0.99717740
0.99715219
0.99718154
0.99726183
0.99735942
0.99745731
0.99756531
0.99774056
0.99792759
0.99819073
0.99841147
0.99864001
0.99889656
0.99916216
0.99942589
0.99968954
0.99990863
1.00012351
1.00026586
1.00036820
1.00041303
1.00032848
1.00020818
0.99997496
0.99960368
0.99914931
0.99844292
0.99767187
0.99668425
0.99543560
0.99400435
0.99232551
0.99026945
0.98774797
0.98422965
0.97874382
0.96916649
0.95189973
0.92078037
0.86692404
0.78346850
0.67601648
0.56113927
0.45317654
0.35936756
0.28160596
0.21895609
0.16936405
0.13054326
0.10037261
0.07703631
0.05904488
0.04520597
0.03457918
0.02642965
0.02018663
0.01540852
0.01175462
0.00896254
0.00683052
0.00520361
0.00396290
0.00301726
0.00229688
0.00174835
0.00133084
0.00101314
0.00077146
0.00058761
0.00044778
0.00034141
0.00026048
0.00019889
0.00015199
0.00011627
0.00008905
0.00006828
0.00005243
0.00004031
0.00003104
0.00002394
0.00001850
0.00001432
0.00001110
0.00000863
0.00000672
0.00000524
0.00000409
0.00000321
0.00000252
0.00000198
0.00000156
0.00000123
0.00000098
0.00000077
0.00000062
0.00000049
0.00000039
0.00000031
0.00000025
0.00000020
0.00000016
0.00000013
0.00000011
0.00000008
0.00000007
0.00000006
0.00000005
0.00000004
0.00000003
0.00000002
0.00000002
0.00000002
0.00000001
0.00000001
0.00000001
0.00000001
0.00000001
0.00000000
0.00000000
0.00000000
0.00000000
0.00000000
0.00000000
0.00000000
0.00000000
0.00000000
0.00000000
0.00000000
0.00000000
0.00000000
0.00000000
0.00000000
0.00000000
0.00000000
0.00000000
0.00000000
0.00000000
0.00000000
0.00000000
0.00000000
0.00000000
0.00000000
0.00000000
0.00000000
0.00000000
0.00000000
0.00000000
0.00000000
0.00000000
0.00000000
0.00000000
0.00000000
0.00000000
0.00000000
0.00000000
0.00000000
0.00000000
0.00000000
0.00000000
0.00000000
0.00000000
0.00000000
0.00000000
0.00000000
0.00000000
0.00000000
0.00000000
0.00000000
0.00000000
0.00000000
0.00000000
0.00000000
0.00000000
0.00000000
0.00000000
0.00000000
0.00000000
0.00000000
0.00000000
0.00000000
0.00000000
0.00000000
0.00000000
0.00000000
0.00000000
0.00000000
0.00000000
0.00000000
0.00000000
0.00000000
0.00000000
0.00000000
0.00000000
0.00000000
0.00000000
0.00000000
0.00000000
0.00000000
0.00000000
0.00000000
0.00000000
0.00000000
0.00000000
0.00000000
0.00000000
0.00000000
0.00000000
0.00289025
0.00291631
0.00296857
0.00304732
0.00315299
0.00328616
0.00344755
0.00363804
0.00385863
0.00411049
0.00439493
0.00471341
0.00506755
0.00545910
0.00588999
0.00636227
0.00687818
0.00744009
0.00805054
0.00871222
0.00942796
0.01020077
0.01103382
0.01193040
0.01289399
0.01392820
0.01503680
0.01622371
0.01749297
0.01884881
0.02029554
0.02183765
0.02347972
0.02522647
0.02708273
0.02905344
0.03114362
0.03335841
0.03570299
0.03818264
0.04080267
0.04356846
0.04648539
0.04955888
0.05279435
0.05619720
0.05977280
0.06352647
0.06746349
0.07158903
0.07590818
0.08042589
0.08514701
0.09007620
0.09521796
0.10057659
0.10615616
0.11196054
0.11799331
0.12425779
0.13075701
0.13749368
0.14447020
0.15168859
0.15915054
0.16685733
0.17480988
0.18300867
0.19145379
0.20014487
0.20908112
0.21826131
0.22768373
0.23734622
0.24724617
0.25738048
0.26774560
0.27833753
0.28915178
0.30018343
0.31142710
0.32287698
0.33452683
0.34637001
0.35839946
0.37060775
0.38298709
0.39552934
0.40822602
0.42106839
0.43404739
0.44715372
0.46037787
0.47371010
0.48714052
0.50065909
0.51425563
0.52791991
0.54164159
0.55541033
0.56921577
0.58304757
0.59689544
0.61074915
0.62459856
0.63843364
0.65224450
0.66602142
0.67975481
0.69343531
0.70705376
0.72060123
0.73406907
0.74744889
0.76073266
0.77391271
0.78698177
0.79993304
0.81276024
0.82545763
0.83802006
0.85044298
0.86272234
0.87485455
0.88683630
0.89866433
0.91033515
0.92184492
0.93318951
0.94436524
0.95537094
0.96621240
0.97691063
0.98751506
0.99811543
1.00879360
1.01932860
1.02671307
1.02413766
1.01871289
1.01304598
1.00841932
1.00563615
1.00423256
1.00355767
1.00330453
1.00301446
1.00306583
1.00301440
1.00287662
1.00294464
1.00282615
1.00279644
1.00300875
1.00294933
1.00302478
1.00304662
1.00309454
1.00313442
1.00312887
1.00308516
1.00298461
1.00308458
1.00295366
1.00288410
1.00276983
1.00253350
1.00246058
1.00238436
1.00206292
1.00202732
1.00171751
1.00163171
1.00138302
1.00103044
1.00086188
1.00058956
1.00027532
0.99992957
0.99965131
0.99924947
0.99906316
0.99887739
0.99847227
0.99820065
0.99796189
0.99768615
0.99750743
0.99743550
0.99729645
0.99719146
0.99715076
0.99722423
0.99725831
0.99742752
0.99753299
0.99764557
0.99773284
0.99791340
0.99824961
0.99846219
0.99872199
0.99890898
0.99932805
0.99960978
0.99969261
1.00003144
1.00022130
1.00046019
1.00049384
1.00053516
1.00050879
1.00055297
1.00022613
0.99998257
0.99965203
0.99910721
0.99848767
0.99750346
0.99653778
0.99539627
0.99414978
0.99269422
0.99129919
0.98948364
0.98721360
0.98294511
0.97323814
0.95139236
0.90540722
0.82287751
0.70703315
0.58133580
0.46502360
0.36593884
0.28514722
0.22083900
0.17036126
0.13107330
0.10065719
0.07719179
0.05913200
0.04525645
0.03460961
0.02644880
0.02019918
0.01541705
0.01176057
0.00896677
0.00683357
0.00520581
0.00396450
0.00301842
0.00229772
0.00174895
0.00133127
0.00101345
0.00077167
0.00058777
0.00044789
0.00034148
0.00026053
0.00019892
0.00015202
0.00011629
0.00008906
0.00006829
0.00005243
0.00004031
0.00003104
0.00002394
0.00001850
0.00001432
0.00001110
0.00000863
0.00000672
0.00000524
0.00000409
0.00000321
0.00000252
0.00000198
0.00000156
0.00000123
0.00000098
0.00000077
0.00000062
0.00000049
0.00000039
0.00000031
0.00000025
0.00000020
0.00000016
0.00000013
0.00000011
0.00000008
0.00000007
0.00000006
0.00000005
0.00000004
0.00000003
0.00000002
0.00000002
0.00000002
0.00000001
0.00000001
0.00000001
0.00000001
0.00000001
0.00000000
0.00000000
0.00000000
0.00000000
0.00000000
0.00000000
0.00000000
0.00000000
0.00000000
0.00000000
0.00000000
0.00000000
0.00000000
0.00000000
0.00000000
0.00000000
0.00000000
0.00000000
0.00000000
0.00000000
0.00000000
0.00000000
0.00000000
0.00000000
0.00000000
0.00000000
0.00000000
0.00000000
0.00000000
0.00000000
0.00000000
0.00000000
0.00000000
0.00000000
0.00000000
0.00000000
0.00000000
0.00000000
0.00000000
0.00000000
0.00000000
0.00000000
0.00000000
0.00000000
0.00000000
0.00000000
0.00000000
0.00000000
0.00000000
0.00000000
0.00000000
0.00000000
0.00000000
0.00000000
0.00000000
0.00000000
0.00000000
0.00000000
0.00000000
0.00000000
0.00000000
0.00000000
0.00000000
0.00000000
0.00000000
0.00000000
0.00000000
0.00000000
0.00000000
0.00000000
0.00000000
0.00000000
0.00000000
0.00000000
0.00000000
0.00000000
0.00000000
0.00000000
0.00000000
0.00000000
0.00000000
0.00000000
0.00000000
0.00000000
0.00000000
0.00000000
0.00000000
0.00000000
0.00000000
0.00000000
0.00289025
0.00291631
0.00296857
0.00304732
0.00315299
0.00328616
0.00344755
0.00363804
0.00385863
0.00411049
0.00439493
0.00471341
0.00506755
0.00545910
0.00588999
0.00636227
0.00687818
0.00744009
0.00805054
0.00871221
0.00942796
0.01020077
0.01103382
0.01193040
0.01289399
0.01392820
0.01503680
0.01622370
0.01749297
0.01884880
0.02029554
0.02183764
0.02347971
0.02522646
0.02708272
0.02905343
0.03114362
0.03335840
0.03570298
0.03818263
0.04080266
0.04356844
0.04648537
0.04955886
0.05279433
0.05619718
0.05977277
0.06352645
0.06746346
0.07158900
0.07590814
0.08042585
0.08514697
0.09007615
0.09521790
0.10057652
0.10615609
0.11196045
0.11799321
0.12425768
0.13075689
0.13749355
0.14447005
0.15168843
0.15915036
0.16685713
0.17480965
0.18300842
0.19145351
0.20014457
0.20908079
0.21826094
0.22768332
0.23734578
0.24724568
0.25737994
0.26774502
0.27833689
0.28915108
0.30018266
0.31142626
0.32287607
0.33452584
0.34636894
0.35839830
0.37060649
0.38298573
0.39552787
0.40822445
0.42106670
0.43404557
0.44715178
0.46037579
0.47370789
0.48713817
0.50065659
0.51425299
0.52791712
0.54163866
0.55540725
0.56921255
0.58304422
0.59689197
0.61074556
0.62459487
0.63842988
0.65224069
0.66601759
0.67975101
0.69343159
0.70705019
0.72059789
0.73406606
0.74744635
0.76073075
0.77391161
0.78698172
0.79993430
0.81276310
0.82546240
0.83802702
0.85045229
0.86273394
0.87486794
0.88685017
0.89867602
0.91033976
0.92183392
0.93314846
0.94427023
0.95518261
0.96586595
0.97629854
0.98645656
0.99630530
1.00574450
1.01438189
1.02073265
1.02144138
1.01714543
1.01117609
1.00665553
1.00431016
1.00355470
1.00323933
1.00313957
1.00288862
1.00287122
1.00281851
1.00287789
1.00271983
1.00276605
1.00275166
1.00287356
1.00288300
1.00299304
1.00301620
1.00299623
1.00301749
1.00300268
1.00299191
1.00288759
1.00298705
1.00280515
1.00276211
1.00267904
1.00255565
1.00236448
1.00223717
1.00211334
1.00186734
1.00166249
1.00143451
1.00135240
1.00102679
1.00076888
1.00050770
1.00035847
0.99993802
0.99963989
0.99934552
0.99902100
0.99868152
0.99862419
0.99827572
0.99802529
0.99776889
0.99771544
0.99757825
0.99748947
0.99745169
0.99739786
0.99742578
0.99756819
0.99759583
0.99766709
0.99774897
0.99805571
0.99826324
0.99850969
0.99873404
0.99892378
0.99915683
0.99946776
0.99978021
1.00004568
1.00039036
1.00056552
1.00081598
1.00090629
1.00115904
1.00120452
1.00118456
1.00118780
1.00110148
1.00086236
1.00073317
1.00042841
1.00008715
0.99979576
0.99940797
0.99927183
0.99925774
0.99969250
1.00060199
1.00193165
1.00326827
1.00301381
0.99530847
0.96481704
0.89034247
0.76283789
0.61771734
0.48611107
0.37751325
0.29134180
0.22411980
0.17209675
0.13199679
0.10115502
0.07746580
0.05928731
0.04534782
0.03466572
0.02648481
0.02022324
0.01543366
0.01177232
0.00897521
0.00683969
0.00521026
0.00396774
0.00302077
0.00229942
0.00175018
0.00133215
0.00101408
0.00077212
0.00058808
0.00044811
0.00034164
0.00026064
0.00019900
0.00015207
0.00011633
0.00008908
0.00006831
0.00005244
0.00004032
0.00003105
0.00002395
0.00001850
0.00001432
0.00001111
0.00000863
0.00000672
0.00000524
0.00000410
0.00000321
0.00000252
0.00000198
0.00000156
0.00000123
0.00000098
0.00000078
0.00000062
0.00000049
0.00000039
0.00000031
0.00000025
0.00000020
0.00000016
0.00000013
0.00000011
0.00000008
0.00000007
0.00000006
0.00000005
0.00000004
0.00000003
0.00000002
0.00000002
0.00000002
0.00000001
0.00000001
0.00000001
0.00000001
0.00000001
0.00000000
0.00000000
0.00000000
0.00000000
0.00000000
0.00000000
0.00000000
0.00000000
0.00000000
0.00000000
0.00000000
0.00000000
0.00000000
0.00000000
0.00000000
0.00000000
0.00000000
0.00000000
0.00000000
0.00000000
0.00000000
0.00000000
0.00000000
0.00000000
0.00000000
0.00000000
0.00000000
0.00000000
0.00000000
0.00000000
0.00000000
0.00000000
0.00000000
0.00000000
0.00000000
0.00000000
0.00000000
0.00000000
0.00000000
0.00000000
0.00000000
0.00000000
0.00000000
0.00000000
0.00000000
0.00000000
0.00000000
0.00000000
0.00000000
0.00000000
0.00000000
0.00000000
0.00000000
0.00000000
0.00000000
0.00000000
0.00000000
0.00000000
0.00000000
0.00000000
0.00000000
0.00000000
0.00000000
0.00000000
0.00000000
0.00000000
0.00000000
0.00000000
0.00000000
0.00000000
0.00000000
0.00000000
0.00000000
0.00000000
0.00000000
0.00000000
0.00000000
0.00000000
0.00000000
0.00000000
0.00000000
0.00000000
0.00000000
0.00000000
0.00000000
0.00000000
0.00000000
0.00000000
0.00000000
0.00000000
0.00289025
0.00291631
0.00296857
0.00304732
0.00315299
0.00328616
0.00344755
0.00363804
0.00385863
0.00411049
0.00439493
0.00471341
0.00506755
0.00545910
0.00588999
0.00636227
0.00687818
0.00744009
0.00805054
0.00871221
0.00942796
0.01020077
0.01103381
0.01193040
0.01289399
0.01392820
0.01503680
0.01622370
0.01749297
0.01884880
0.02029553
0.02183764
0.02347971
0.02522646
0.02708272
0.02905342
0.03114361
0.03335839
0.03570297
0.03818261
0.04080264
0.04356842
0.04648535
0.04955884
0.05279430
0.05619715
0.05977274
0.06352641
0.06746341
0.07158894
0.07590808
0.08042579
0.08514689
0.09007607
0.09521781
0.10057642
0.10615597
0.11196032
0.11799307
0.12425752
0.13075671
0.13749335
0.14446983
0.15168818
0.15915008
0.16685683
0.17480932
0.18300805
0.19145310
0.20014411
0.20908029
0.21826039
0.22768272
0.23734511
0.24724494
0.25737914
0.26774413
0.27833592
0.28915002
0.30018151
0.31142500
0.32287470
0.33452436
0.34636732
0.35839655
0.37060460
0.38298369
0.39552567
0.40822208
0.42106415
0.43404284
0.44714885
0.46037267
0.47370456
0.48713463
0.50065284
0.51424902
0.52791292
0.54163423
0.55540261
0.56920770
0.58303916
0.59688671
0.61074013
0.62458928
0.63842416
0.65223490
0.66601176
0.67974520
0.69342589
0.70704469
0.72059272
0.73406136
0.74744232
0.76072761
0.77390965
0.78698128
0.79993578
0.81276697
0.82546914
0.83803714
0.85046618
0.86275179
0.87488944
0.88687414
0.89869977
0.91035808
0.92183746
0.93312131
0.94418590
0.95499783
0.96551059
0.97565960
0.98535310
0.99445212
1.00272330
1.00972117
1.01457007
1.01589549
1.01386284
1.01026395
1.00700428
1.00494588
1.00390378
1.00338260
1.00304882
1.00282514
1.00268636
1.00257364
1.00258496
1.00256669
1.00257260
1.00257367
1.00262320
1.00266399
1.00269239
1.00276695
1.00275201
1.00275129
1.00279226
1.00275530
1.00272908
1.00269535
1.00260448
1.00252792
1.00244498
1.00234513
1.00222389
1.00209847
1.00193571
1.00175758
1.00158223
1.00136756
1.00121329
1.00096636
1.00072040
1.00049321
1.00025455
1.00000927
0.99973480
0.99944582
0.99916567
0.99891754
0.99871246
0.99848263
0.99825517
0.99808562
0.99793380
0.99785135
0.99778633
0.99777988
0.99778739
0.99781630
0.99789939
0.99797776
0.99808777
0.99820651
0.99837145
0.99855228
0.99877947
0.99898642
0.99924393
0.99951038
0.99983017
1.00012163
1.00045253
1.00078007
1.00109172
1.00140553
1.00163148
1.00184700
1.00208691
1.00222675
1.00238750
1.00251030
1.00263748
1.00276047
1.00296027
1.00326558
1.00368473
1.00425504
1.00514422
1.00643651
1.00822293
1.01061001
1.01369506
1.01721761
1.02010974
1.01874335
1.00287541
0.94858592
0.82431642
0.66013828
0.51084074
0.39102783
0.29854167
0.22792455
0.17411132
0.13307416
0.10174186
0.07779441
0.05947824
0.04546376
0.03473951
0.02653390
0.02025712
0.01545769
0.01178967
0.00898787
0.00684896
0.00521706
0.00397270
0.00302438
0.00230204
0.00175207
0.00133350
0.00101504
0.00077281
0.00058857
0.00044845
0.00034188
0.00026080
0.00019911
0.00015215
0.00011638
0.00008912
0.00006833
0.00005246
0.00004033
0.00003106
0.00002395
0.00001851
0.00001432
0.00001111
0.00000863
0.00000672
0.00000524
0.00000410
0.00000321
0.00000252
0.00000198
0.00000156
0.00000123
0.00000098
0.00000078
0.00000062
0.00000049
0.00000039
0.00000031
0.00000025
0.00000020
0.00000016
0.00000013
0.00000011
0.00000008
0.00000007
0.00000006
0.00000005
0.00000004
0.00000003
0.00000002
0.00000002
0.00000002
0.00000001
0.00000001
0.00000001
0.00000001
0.00000001
0.00000000
0.00000000
0.00000000
0.00000000
0.00000000
0.00000000
0.00000000
0.00000000
0.00000000
0.00000000
0.00000000
0.00000000
0.00000000
0.00000000
0.00000000
0.00000000
0.00000000
0.00000000
0.00000000
0.00000000
0.00000000
0.00000000
0.00000000
0.00000000
0.00000000
0.00000000
0.00000000
0.00000000
0.00000000
0.00000000
0.00000000
0.00000000
0.00000000
0.00000000
0.00000000
0.00000000
0.00000000
0.00000000
0.00000000
0.00000000
0.00000000
0.00000000
0.00000000
0.00000000
0.00000000
0.00000000
0.00000000
0.00000000
0.00000000
0.00000000
0.00000000
0.00000000
0.00000000
0.00000000
0.00000000
0.00000000
0.00000000
0.00000000
0.00000000
0.00000000
0.00000000
0.00000000
0.00000000
0.00000000
0.00000000
0.00000000
0.00000000
0.00000000
0.00000000
0.00000000
0.00000000
0.00000000
0.00000000
0.00000000
0.00000000
0.00000000
0.00000000
0.00000000
0.00000000
0.00000000
0.00000000
0.00000000
0.00000000
0.00000000
0.00000000
0.00000000
0.00000000
0.00000000
0.00000000
0.00000000
0.00289025
0.00291631
0.00296857
0.00304732
0.00315299
0.00328616
0.00344755
0.00363804
0.00385863
0.00411049
0.00439493
0.00471341
0.00506755
0.00545910
0.00588999
0.00636227
0.00687818
0.00744009
0.00805054
0.00871221
0.00942796
0.01020077
0.01103381
0.01193040
0.01289398
0.01392819
0.01503679
0.01622370
0.01749296
0.01884880
0.02029553
0.02183763
0.02347970
0.02522645
0.02708271
0.02905341
0.03114360
0.03335838
0.03570295
0.03818260
0.04080262
0.04356840
0.04648532
0.04955881
0.05279427
0.05619711
0.05977269
0.06352635
0.06746335
0.07158888
0.07590801
0.08042570
0.08514680
0.09007596
0.09521769
0.10057628
0.10615582
0.11196015
0.11799288
0.12425731
0.13075648
0.13749309
0.14446954
0.15168786
0.15914972
0.16685642
0.17480887
0.18300756
0.19145255
0.20014350
0.20907962
0.21825965
0.22768190
0.23734421
0.24724396
0.25737806
0.26774295
0.27833463
0.28914861
0.30017996
0.31142332
0.32287287
0.33452237
0.34636517
0.35839421
0.37060207
0.38298096
0.39552272
0.40821891
0.42106074
0.43403918
0.44714494
0.46036848
0.47370010
0.48712988
0.50064779
0.51424367
0.52790727
0.54162829
0.55539636
0.56920116
0.58303234
0.59687962
0.61073279
0.62458173
0.63841643
0.65222703
0.66600382
0.67973728
0.69341807
0.70703710
0.72058551
0.73405474
0.74743651
0.76072292
0.77390645
0.78698000
0.79993698
0.81277126
0.82547725
0.83804982
0.85048422
0.86277581
0.87491974
0.88691036
0.89874028
0.91039919
0.92187205
0.93313673
0.94416082
0.95489726
0.96527845
0.97520773
0.98454712
0.99309858
1.00057676
1.00657948
1.01058090
1.01210819
1.01137536
1.00936368
1.00713823
1.00541629
1.00426395
1.00351005
1.00300042
1.00266314
1.00244833
1.00232143
1.00226676
1.00226070
1.00227122
1.00229692
1.00234432
1.00239300
1.00242884
1.00246783
1.00249296
1.00250885
1.00251707
1.00250293
1.00247508
1.00243421
1.00236652
1.00229999
1.00221810
1.00212193
1.00200898
1.00189389
1.00175251
1.00159750
1.00144306
1.00126978
1.00109675
1.00089987
1.00068794
1.00047634
1.00025713
1.00002173
0.99978818
0.99954899
0.99930415
0.99907517
0.99886817
0.99866496
0.99848994
0.99835129
0.99824748
0.99818182
0.99815031
0.99814744
0.99817175
0.99822833
0.99829655
0.99837653
0.99847308
0.99858687
0.99872528
0.99889094
0.99909035
0.99932182
0.99957152
0.99985797
1.00016737
1.00050419
1.00085886
1.00122837
1.00159562
1.00196203
1.00230039
1.00261972
1.00294345
1.00323921
1.00355296
1.00389139
1.00429007
1.00477854
1.00540591
1.00621623
1.00726782
1.00860805
1.01033857
1.01254177
1.01531052
1.01869801
1.02271089
1.02713928
1.03119264
1.03231102
1.02289440
0.98123579
0.86965004
0.69512726
0.53188531
0.40262011
0.30473260
0.23120790
0.17586352
0.13402583
0.10227406
0.07810442
0.05966801
0.04558619
0.03482240
0.02659223
0.02029929
0.01548868
0.01181262
0.00900490
0.00686158
0.00522637
0.00397955
0.00302938
0.00230566
0.00175468
0.00133538
0.00101638
0.00077375
0.00058924
0.00044892
0.00034221
0.00026103
0.00019927
0.00015226
0.00011646
0.00008918
0.00006837
0.00005249
0.00004035
0.00003107
0.00002396
0.00001851
0.00001433
0.00001111
0.00000863
0.00000672
0.00000524
0.00000410
0.00000321
0.00000252
0.00000198
0.00000156
0.00000123
0.00000098
0.00000078
0.00000062
0.00000049
0.00000039
0.00000031
0.00000025
0.00000020
0.00000016
0.00000013
0.00000011
0.00000008
0.00000007
0.00000006
0.00000005
0.00000004
0.00000003
0.00000002
0.00000002
0.00000002
0.00000001
0.00000001
0.00000001
0.00000001
0.00000001
0.00000000
0.00000000
0.00000000
0.00000000
0.00000000
0.00000000
0.00000000
0.00000000
0.00000000
0.00000000
0.00000000
0.00000000
0.00000000
0.00000000
0.00000000
0.00000000
0.00000000
0.00000000
0.00000000
0.00000000
0.00000000
0.00000000
0.00000000
0.00000000
0.00000000
0.00000000
0.00000000
0.00000000
0.00000000
0.00000000
0.00000000
0.00000000
0.00000000
0.00000000
0.00000000
0.00000000
0.00000000
0.00000000
0.00000000
0.00000000
0.00000000
0.00000000
0.00000000
0.00000000
0.00000000
0.00000000
0.00000000
0.00000000
0.00000000
0.00000000
0.00000000
0.00000000
0.00000000
0.00000000
0.00000000
0.00000000
0.00000000
0.00000000
0.00000000
0.00000000
0.00000000
0.00000000
0.00000000
0.00000000
0.00000000
0.00000000
0.00000000
0.00000000
0.00000000
0.00000000
0.00000000
0.00000000
0.00000000
0.00000000
0.00000000
0.00000000
0.00000000
0.00000000
0.00000000
0.00000000
0.00000000
0.00000000
0.00000000
0.00000000
0.00000000
0.00000000
0.00000000
0.00000000
0.00000000
0.00000000
0.00289025
0.00291631
0.00296857
0.00304732
0.00315299
0.00328616
0.00344755
0.00363804
0.00385863
0.00411049
0.00439493
0.00471341
0.00506755
0.00545910
0.00588998
0.00636227
0.00687818
0.00744009
0.00805054
0.00871221
0.00942795
0.01020077
0.01103381
0.01193039
0.01289398
0.01392819
0.01503679
0.01622369
0.01749296
0.01884879
0.02029552
0.02183762
0.02347969
0.02522644
0.02708269
0.02905340
0.03114358
0.03335836
0.03570293
0.03818257
0.04080259
0.04356837
0.04648529
0.04955877
0.05279422
0.05619705
0.05977263
0.06352629
0.06746328
0.07158879
0.07590791
0.08042560
0.08514668
0.09007583
0.09521754
0.10057611
0.10615563
0.11195994
0.11799264
0.12425704
0.13075618
0.13749276
0.14446917
0.15168745
0.15914926
0.16685592
0.17480831
0.18300693
0.19145186
0.20014275
0.20907878
0.21825873
0.22768088
0.23734309
0.24724273
0.25737671
0.26774147
0.27833301
0.28914684
0.30017803
0.31142122
0.32287058
0.33451987
0.34636246
0.35839128
0.37059890
0.38297753
0.39551902
0.40821492
0.42105645
0.43403458
0.44714001
0.46036321
0.47369447
0.48712389
0.50064143
0.51423693
0.52790015
0.54162078
0.55538847
0.56919288
0.58302369
0.59687063
0.61072347
0.62457211
0.63840657
0.65221697
0.66599365
0.67972707
0.69340795
0.70702721
0.72057603
0.73404589
0.74742858
0.76071626
0.77390149
0.78697729
0.79993717
0.81277515
0.82548577
0.83806407
0.85050538
0.86280515
0.87495848
0.88695944
0.89880012
0.91046913
0.92194964
0.93321659
0.94423292
0.95494433
0.96527197
0.97510240
0.98427383
0.99255967
0.99965482
1.00518634
1.00878972
1.01031605
1.01006311
1.00871914
1.00702896
1.00549200
1.00429169
1.00341530
1.00280386
1.00239245
1.00213465
1.00199158
1.00193200
1.00192658
1.00195361
1.00199837
1.00205214
1.00210621
1.00215314
1.00219341
1.00222519
1.00224384
1.00225098
1.00224366
1.00222134
1.00218211
1.00212634
1.00205971
1.00198162
1.00189357
1.00179475
1.00168602
1.00156766
1.00143965
1.00130316
1.00115735
1.00100164
1.00083365
1.00065412
1.00046567
1.00026854
1.00006305
0.99985314
0.99964252
0.99943170
0.99922731
0.99903513
0.99886166
0.99871459
0.99860213
0.99852579
0.99848708
0.99848532
0.99851278
0.99856319
0.99862741
0.99869627
0.99876808
0.99885005
0.99894776
0.99907044
0.99922077
0.99940330
0.99962163
0.99987476
1.00016401
1.00048755
1.00084749
1.00123497
1.00164446
1.00206603
1.00248790
1.00290092
1.00330521
1.00370682
1.00411523
1.00455231
1.00505175
1.00565436
1.00640609
1.00736167
1.00857447
1.01010222
1.01200529
1.01435466
1.01722137
1.02067582
1.02475609
1.02943419
1.03449600
1.03923326
1.04143408
1.03393357
0.99579976
0.89076477
0.71298033
0.54310247
0.40893855
0.30815598
0.23305731
0.17688259
0.13461027
0.10262895
0.07833457
0.05982682
0.04570121
0.03490837
0.02665756
0.02034922
0.01552679
0.01184158
0.00902675
0.00687793
0.00523851
0.00398849
0.00303592
0.00231041
0.00175811
0.00133783
0.00101813
0.00077499
0.00059011
0.00044953
0.00034263
0.00026133
0.00019948
0.00015240
0.00011656
0.00008924
0.00006842
0.00005252
0.00004037
0.00003109
0.00002397
0.00001852
0.00001433
0.00001111
0.00000863
0.00000672
0.00000524
0.00000410
0.00000321
0.00000252
0.00000198
0.00000156
0.00000123
0.00000098
0.00000078
0.00000062
0.00000049
0.00000039
0.00000031
0.00000025
0.00000020
0.00000016
0.00000013
0.00000011
0.00000008
0.00000007
0.00000006
0.00000005
0.00000004
0.00000003
0.00000002
0.00000002
0.00000002
0.00000001
0.00000001
0.00000001
0.00000001
0.00000001
0.00000000
0.00000000
0.00000000
0.00000000
0.00000000
0.00000000
0.00000000
0.00000000
0.00000000
0.00000000
0.00000000
0.00000000
0.00000000
0.00000000
0.00000000
0.00000000
0.00000000
0.00000000
0.00000000
0.00000000
0.00000000
0.00000000
0.00000000
0.00000000
0.00000000
0.00000000
0.00000000
0.00000000
0.00000000
0.00000000
0.00000000
0.00000000
0.00000000
0.00000000
0.00000000
0.00000000
0.00000000
0.00000000
0.00000000
0.00000000
0.00000000
0.00000000
0.00000000
0.00000000
0.00000000
0.00000000
0.00000000
0.00000000
0.00000000
0.00000000
0.00000000
0.00000000
0.00000000
0.00000000
0.00000000
0.00000000
0.00000000
0.00000000
0.00000000
0.00000000
0.00000000
0.00000000
0.00000000
0.00000000
0.00000000
0.00000000
0.00000000
0.00000000
0.00000000
0.00000000
0.00000000
0.00000000
0.00000000
0.00000000
0.00000000
0.00000000
0.00000000
0.00000000
0.00000000
0.00000000
0.00000000
0.00000000
0.00000000
0.00000000
0.00000000
0.00000000
0.00000000
0.00000000
0.00000000
0.00000000
0.00289025
0.00291631
0.00296857
0.00304732
0.00315299
0.00328616
0.00344755
0.00363804
0.00385863
0.00411049
0.00439493
0.00471341
0.00506755
0.00545910
0.00588998
0.00636227
0.00687818
0.00744009
0.00805054
0.00871221
0.00942795
0.01020077
0.01103381
0.01193039
0.01289398
0.01392819
0.01503678
0.01622369
0.01749295
0.01884878
0.02029551
0.02183761
0.02347968
0.02522642
0.02708268
0.02905338
0.03114356
0.03335834
0.03570291
0.03818254
0.04080256
0.04356833
0.04648525
0.04955872
0.05279417
0.05619699
0.05977256
0.06352621
0.06746319
0.07158869
0.07590780
0.08042547
0.08514653
0.09007567
0.09521736
0.10057591
0.10615540
0.11195969
0.11799235
0.12425673
0.13075582
0.13749236
0.14446873
0.15168695
0.15914872
0.16685531
0.17480764
0.18300619
0.19145104
0.20014183
0.20907777
0.21825762
0.22767966
0.23734175
0.24724125
0.25737508
0.26773969
0.27833106
0.28914471
0.30017570
0.31141868
0.32286781
0.33451687
0.34635919
0.35838774
0.37059507
0.38297339
0.39551455
0.40821010
0.42105127
0.43402902
0.44713405
0.46035684
0.47368767
0.48711664
0.50063373
0.51422876
0.52789150
0.54161165
0.55537887
0.56918281
0.58301316
0.59685965
0.61071207
0.62456034
0.63839446
0.65220459
0.66598107
0.67971440
0.69339531
0.70701476
0.72056397
0.73403446
0.74741810
0.76070711
0.77389417
0.78697240
0.79993545
0.81277754
0.82549341
0.83807832
0.85052788
0.86283784
0.87500358
0.88701950
0.89887800
0.91056803
0.92207314
0.93336877
0.94441855
0.95516906
0.96554246
0.97542547
0.98465357
0.99298921
1.00009982
1.00556184
1.00897009
1.01025229
1.00985775
1.00850126
1.00684286
1.00529099
1.00402617
1.00307877
1.00241232
1.00197285
1.00170939
1.00157764
1.00153899
1.00156043
1.00161463
1.00168267
1.00175263
1.00181754
1.00187384
1.00192068
1.00195681
1.00198028
1.00199064
1.00198640
1.00196695
1.00193205
1.00188240
1.00182015
1.00174669
1.00166463
1.00157545
1.00148089
1.00138133
1.00127633
1.00116445
1.00104397
1.00091380
1.00077263
1.00062072
1.00045866
1.00028724
1.00010883
0.99992543
0.99973981
0.99955371
0.99937186
0.99920099
0.99904908
0.99892468
0.99883579
0.99878675
0.99878013
0.99881333
0.99887796
0.99895985
0.99904159
0.99911039
0.99916526
0.99921914
0.99928944
0.99938840
0.99952034
0.99968608
0.99988741
1.00012824
1.00041302
1.00074436
1.00112202
1.00154076
1.00199130
1.00246099
1.00293549
1.00340373
1.00386257
1.00431553
1.00477816
1.00527898
1.00586036
1.00657501
1.00748247
1.00864286
1.01011463
1.01195318
1.01421372
1.01695496
1.02023875
1.02412709
1.02866549
1.03383462
1.03942965
1.04469734
1.04713370
1.03869109
0.99670662
0.88769010
0.71042752
0.54170411
0.40825237
0.30785590
0.23296407
0.17690388
0.13469348
0.10274111
0.07845462
0.05994196
0.04580451
0.03499685
0.02673077
0.02040820
0.01557328
0.01187757
0.00905420
0.00689860
0.00525390
0.00399984
0.00304421
0.00231642
0.00176244
0.00134093
0.00102034
0.00077655
0.00059121
0.00045030
0.00034317
0.00026171
0.00019974
0.00015258
0.00011668
0.00008933
0.00006847
0.00005256
0.00004040
0.00003110
0.00002399
0.00001853
0.00001434
0.00001112
0.00000864
0.00000672
0.00000524
0.00000410
0.00000321
0.00000252
0.00000198
0.00000156
0.00000123
0.00000098
0.00000078
0.00000062
0.00000049
0.00000039
0.00000031
0.00000025
0.00000020
0.00000016
0.00000013
0.00000011
0.00000008
0.00000007
0.00000006
0.00000005
0.00000004
0.00000003
0.00000002
0.00000002
0.00000002
0.00000001
0.00000001
0.00000001
0.00000001
0.00000001
0.00000000
0.00000000
0.00000000
0.00000000
0.00000000
0.00000000
0.00000000
0.00000000
0.00000000
0.00000000
0.00000000
0.00000000
0.00000000