# vtk DataFile Version 3.0
Concentration output
ASCII
DATASET STRUCTURED_POINTS
DIMENSIONS 398 98 1
ORIGIN 0 0 0
SPACING 0.03 0.03 1.0
POINT_DATA 39004
SCALARS concentration float 1
LOOKUP_TABLE default
0.00000311
0.00000621
0.00000941
0.00001270
0.00001613
0.00001974
0.00002355
0.00002762
0.00003197
0.00003666
0.00004172
0.00004720
0.00005314
0.00005961
0.00006665
0.00007432
0.00008269
0.00009180
0.00010174
0.00011257
0.00012437
0.00013721
0.00015119
0.00016638
0.00018290
0.00020082
0.00022026
0.00024132
0.00026413
0.00028879
0.00031544
0.00034420
0.00037522
0.00040862
0.00044458
0.00048322
0.00052473
0.00056925
0.00061696
0.00066804
0.00072266
0.00078102
0.00084329
0.00090968
0.00098038
0.00105560
0.00113554
0.00122041
0.00131041
0.00140576
0.00150668
0.00161338
0.00172607
0.00184497
0.00197029
0.00210224
0.00224103
0.00238687
0.00253996
0.00270049
0.00286867
0.00304467
0.00322868
0.00342087
0.00362140
0.00383042
0.00404809
0.00427453
0.00450988
0.00475424
0.00500771
0.00527038
0.00554233
0.00582362
0.00611429
0.00641437
0.00672389
0.00704284
0.00737121
0.00770897
0.00805608
0.00841247
0.00877809
0.00915282
0.00953657
0.00992922
0.01033062
0.01074063
0.01115908
0.01158579
0.01202057
0.01246319
0.01291345
0.01337110
0.01383588
0.01430753
0.01478576
0.01527029
0.01576079
0.01625694
0.01675838
0.01726476
0.01777570
0.01829078
0.01880958
0.01933166
0.01985654
0.02038372
0.02091266
0.02144281
0.02197357
0.02250431
0.02303436
0.02356301
0.02408952
0.02461310
0.02513293
0.02564813
0.02615781
0.02666104
0.02715684
0.02764425
0.02812225
0.02858985
0.02904606
0.02948990
0.02992044
0.03033679
0.03073814
0.03112374
0.03149296
0.03184528
0.03218033
0.03249785
0.03279774
0.03308008
0.03334509
0.03359315
0.03382480
0.03404072
0.03424171
0.03442872
0.03460276
0.03476494
0.03491642
0.03505840
0.03519209
0.03531871
0.03543945
0.03555547
0.03566788
0.03577773
0.03588601
0.03599363
0.03610143
0.03621017
0.03632052
0.03643308
0.03654838
0.03666689
0.03678898
0.03691498
0.03704516
0.03717976
0.03731893
0.03746282
0.03761152
0.03776512
0.03792366
0.03808718
0.03825568
0.03842918
0.03860767
0.03879115
0.03897959
0.03917301
0.03937137
0.03957468
0.03978294
0.03999615
0.04021432
0.04043746
0.04066559
0.04089876
0.04113699
0.04138034
0.04162886
0.04188262
0.04214171
0.04240620
0.04267621
0.04295183
0.04323319
0.04352042
0.04381368
0.04411311
0.04441889
0.04473119
0.04505022
0.04537617
0.04570927
0.04604975
0.04639787
0.04675387
0.04711804
0.04749067
0.04787208
0.04826258
0.04866254
0.04907230
0.04949227
0.04992284
0.05036447
0.05081760
0.05128273
0.05176038
0.05225109
0.05275546
0.05327411
0.05380770
0.05435696
0.05492262
0.05550552
0.05610651
0.05672653
0.05736659
0.05802776
0.05871120
0.05941818
0.06015005
0.06090828
0.06169448
0.06251038
0.06335788
0.06423905
0.06515616
0.06611171
0.06710844
0.06814937
0.06923787
0.07037766
0.07157290
0.07282823
0.07414889
0.07554075
0.07701050
0.07856572
0.08021511
0.08196865
0.08383789
0.08583631
0.08797964
0.09028653
0.09277914
0.09548411
0.09843379
0.10166790
0.10523587
0.10920014
0.11364093
0.11866343
0.12440886
0.13107276
0.13893662
0.14842376
0.16019479
0.17530610
0.19551477
0.22404951
0.26676811
0.31984835
0.23410536
0.13323371
0.07247506
0.04000992
0.02269186
0.01320253
0.00784453
0.00473976
0.00290257
0.00179709
0.00112282
0.00070696
0.00044808
0.00028564
0.00018301
0.00011778
0.00007610
0.00004935
0.00003211
0.00002095
0.00001371
0.00000899
0.00000591
0.00000390
0.00000257
0.00000170
0.00000113
0.00000075
0.00000050
0.00000033
0.00000022
0.00000015
0.00000010
0.00000007
0.00000004
0.00000003
0.00000002
0.00000001
0.00000001
0.00000001
0.00000000
0.00000000
0.00000000
0.00000000
0.00000000
0.00000000
0.00000000
0.00000000
0.00000000
0.00000000
0.00000000
0.00000000
0.00000000
0.00000000
0.00000000
0.00000000
0.00000000
0.00000000
0.00000000
0.00000000
0.00000000
0.00000000
0.00000000
0.00000000
0.00000000
0.00000000
0.00000000
0.00000000
0.00000000
0.00000000
0.00000000
0.00000000
0.00000000
0.00000000
0.00000000
0.00000000
0.00000000
0.00000000
0.00000000
0.00000000
0.00000000
0.00000000
0.00000000
0.00000000
0.00000000
0.00000000
0.00000000
0.00000000
0.00000000
0.00000000
0.00000000
0.00000000
0.00000000
0.00000000
0.00000000
0.00000000
0.00000000
0.00000000
0.00000000
0.00000000
0.00000000
0.00000000
0.00000000
0.00000000
0.00000000
0.00000000
0.00000000
0.00000000
0.00000000
0.00000000
0.00000000
0.00000000
0.00000000
0.00000000
0.00000000
0.00000000
0.00000000
0.00000000
0.00000000
0.00000000
0.00000000
0.00000000
0.00000000
0.00000000
0.00000000
0.00000000
0.00000000
0.00000622
0.00001242
0.00001880
0.00002538
0.00003224
0.00003945
0.00004708
0.00005520
0.00006390
0.00007327
0.00008338
0.00009433
0.00010622
0.00011915
0.00013322
0.00014856
0.00016527
0.00018349
0.00020335
0.00022500
0.00024858
0.00027425
0.00030219
0.00033256
0.00036556
0.00040139
0.00044024
0.00048234
0.00052792
0.00057722
0.00063048
0.00068797
0.00074996
0.00081673
0.00088859
0.00096584
0.00104879
0.00113778
0.00123314
0.00133523
0.00144441
0.00156104
0.00168551
0.00181821
0.00195952
0.00210986
0.00226963
0.00243925
0.00261914
0.00280973
0.00301143
0.00322469
0.00344992
0.00368756
0.00393803
0.00420176
0.00447916
0.00477064
0.00507662
0.00539747
0.00573360
0.00608537
0.00645313
0.00683724
0.00723803
0.00765579
0.00809083
0.00854340
0.00901377
0.00950215
0.01000874
0.01053372
0.01107724
0.01163941
0.01222033
0.01282007
0.01343865
0.01407609
0.01473235
0.01540738
0.01610109
0.01681336
0.01754404
0.01829295
0.01905987
0.01984457
0.02064678
0.02146617
0.02230244
0.02315521
0.02402409
0.02490866
0.02580847
0.02672306
0.02765190
0.02859447
0.02955021
0.03051851
0.03149876
0.03249030
0.03349244
0.03450444
0.03552556
0.03655498
0.03759186
0.03863530
0.03968435
0.04073802
0.04179526
0.04285493
0.04391586
0.04497678
0.04603637
0.04709322
0.04814583
0.04919263
0.05023198
0.05126215
0.05228134
0.05328767
0.05427922
0.05525403
0.05621008
0.05714538
0.05805792
0.05894576
0.05980700
0.06063986
0.06144268
0.06221399
0.06295250
0.06365715
0.06432716
0.06496203
0.06556155
0.06612586
0.06665538
0.06715090
0.06761347
0.06804447
0.06844552
0.06881850
0.06916546
0.06948862
0.06979033
0.07007298
0.07033902
0.07059089
0.07083100
0.07106165
0.07128509
0.07150343
0.07171864
0.07193256
0.07214685
0.07236303
0.07258246
0.07280635
0.07303573
0.07327154
0.07351452
0.07376535
0.07402456
0.07429258
0.07456977
0.07485638
0.07515263
0.07545865
0.07577454
0.07610036
0.07643615
0.07678190
0.07713761
0.07750326
0.07787884
0.07826430
0.07865965
0.07906485
0.07947991
0.07990483
0.08033963
0.08078433
0.08123898
0.08170364
0.08217838
0.08266331
0.08315854
0.08366419
0.08418042
0.08470742
0.08524536
0.08579447
0.08635500
0.08692720
0.08751136
0.08810780
0.08871684
0.08933884
0.08997420
0.09062332
0.09128663
0.09196460
0.09265771
0.09336649
0.09409149
0.09483327
0.09559247
0.09636972
0.09716570
0.09798115
0.09881684
0.09967356
0.10055219
0.10145363
0.10237884
0.10332886
0.10430476
0.10530772
0.10633895
0.10739978
0.10849160
0.10961591
0.11077430
0.11196849
0.11320032
0.11447175
0.11578491
0.11714208
0.11854573
0.11999853
0.12150336
0.12306336
0.12468194
0.12636281
0.12811003
0.12992803
0.13182169
0.13379635
0.13585792
0.13801293
0.14026865
0.14263313
0.14511542
0.14772562
0.15047515
0.15337688
0.15644547
0.15969765
0.16315259
0.16683244
0.17076293
0.17497409
0.17950129
0.18438649
0.18967987
0.19544204
0.20174701
0.20868616
0.21637397
0.22495592
0.23462020
0.24561508
0.25827622
0.27307156
0.29067534
0.31207882
0.33871597
0.37251049
0.41556821
0.46776685
0.50666537
0.36577617
0.21903618
0.12543312
0.07193188
0.04186077
0.02477348
0.01488964
0.00906920
0.00558666
0.00347444
0.00217850
0.00137557
0.00087391
0.00055820
0.00035825
0.00023090
0.00014939
0.00009699
0.00006316
0.00004126
0.00002702
0.00001773
0.00001167
0.00000769
0.00000508
0.00000336
0.00000223
0.00000148
0.00000098
0.00000065
0.00000044
0.00000029
0.00000019
0.00000013
0.00000009
0.00000006
0.00000004
0.00000003
0.00000002
0.00000001
0.00000001
0.00000001
0.00000000
0.00000000
0.00000000
0.00000000
0.00000000
0.00000000
0.00000000
0.00000000
0.00000000
0.00000000
0.00000000
0.00000000
0.00000000
0.00000000
0.00000000
0.00000000
0.00000000
0.00000000
0.00000000
0.00000000
0.00000000
0.00000000
0.00000000
0.00000000
0.00000000
0.00000000
0.00000000
0.00000000
0.00000000
0.00000000
0.00000000
0.00000000
0.00000000
0.00000000
0.00000000
0.00000000
0.00000000
0.00000000
0.00000000
0.00000000
0.00000000
0.00000000
0.00000000
0.00000000
0.00000000
0.00000000
0.00000000
0.00000000
0.00000000
0.00000000
0.00000000
0.00000000
0.00000000
0.00000000
0.00000000
0.00000000
0.00000000
0.00000000
0.00000000
0.00000000
0.00000000
0.00000000
0.00000000
0.00000000
0.00000000
0.00000000
0.00000000
0.00000000
0.00000000
0.00000000
0.00000000
0.00000000
0.00000000
0.00000000
0.00000000
0.00000000
0.00000000
0.00000000
0.00000000
0.00000000
0.00000000
0.00000000
0.00000000
0.00000000
0.00000000
0.00000933
0.00001861
0.00002817
0.00003804
0.00004832
0.00005911
0.00007054
0.00008272
0.00009576
0.00010979
0.00012494
0.00014135
0.00015917
0.00017854
0.00019963
0.00022261
0.00024765
0.00027495
0.00030471
0.00033715
0.00037248
0.00041095
0.00045281
0.00049833
0.00054778
0.00060146
0.00065968
0.00072277
0.00079106
0.00086493
0.00094473
0.00103088
0.00112377
0.00122383
0.00133150
0.00144724
0.00157154
0.00170488
0.00184778
0.00200075
0.00216434
0.00233910
0.00252561
0.00272444
0.00293618
0.00316145
0.00340085
0.00365501
0.00392455
0.00421012
0.00451235
0.00483189
0.00516937
0.00552544
0.00590074
0.00629589
0.00671153
0.00714828
0.00760673
0.00808748
0.00859111
0.00911817
0.00966921
0.01024473
0.01084522
0.01147116
0.01212297
0.01280106
0.01350580
0.01423752
0.01499653
0.01578308
0.01659741
0.01743968
0.01831004
0.01920858
0.02013535
0.02109036
0.02207357
0.02308489
0.02412419
0.02519128
0.02628596
0.02740794
0.02855690
0.02973248
0.03093427
0.03216183
0.03341464
0.03469217
0.03599383
0.03731899
0.03866699
0.04003711
0.04142859
0.04284064
0.04427241
0.04572302
0.04719153
0.04867696
0.05017829
0.05169443
0.05322424
0.05476652
0.05632001
0.05788338
0.05945522
0.06103403
0.06261825
0.06420621
0.06579613
0.06738614
0.06897426
0.07055837
0.07213627
0.07370559
0.07526388
0.07680855
0.07833689
0.07984610
0.08133329
0.08279549
0.08422970
0.08563287
0.08700201
0.08833414
0.08962642
0.09087611
0.09208072
0.09323798
0.09434591
0.09540291
0.09640775
0.09735965
0.09825828
0.09910381
0.09989689
0.10063866
0.10133072
0.10197515
0.10257440
0.10313129
0.10364895
0.10413072
0.10458015
0.10500088
0.10539662
0.10577103
0.10612776
0.10647031
0.10680205
0.10712617
0.10744563
0.10776320
0.10808139
0.10840247
0.10872848
0.10906123
0.10940229
0.10975301
0.11011455
0.11048788
0.11087380
0.11127296
0.11168586
0.11211291
0.11255439
0.11301050
0.11348140
0.11396715
0.11446780
0.11498335
0.11551377
0.11605905
0.11661913
0.11719398
0.11778357
0.11838786
0.11900684
0.11964052
0.12028891
0.12095206
0.12163002
0.12232289
0.12303076
0.12375378
0.12449212
0.12524595
0.12601552
0.12680107
0.12760290
0.12842131
0.12925667
0.13010935
0.13097979
0.13186844
0.13277580
0.13370239
0.13464877
0.13561556
0.13660339
0.13761294
0.13864494
0.13970014
0.14077936
0.14188345
0.14301332
0.14416990
0.14535422
0.14656734
0.14781038
0.14908454
0.15039108
0.15173133
0.15310671
0.15451873
0.15596898
0.15745916
0.15899107
0.16056664
0.16218790
0.16385706
0.16557644
0.16734855
0.16917606
0.17106186
0.17300902
0.17502088
0.17710103
0.17925335
0.18148202
0.18379160
0.18618703
0.18867368
0.19125742
0.19394464
0.19674239
0.19965835
0.20270102
0.20587979
0.20920503
0.21268830
0.21634246
0.22018194
0.22422291
0.22848363
0.23298479
0.23774993
0.24280596
0.24818382
0.25391929
0.26005396
0.26663651
0.27372434
0.28138561
0.28970194
0.29877199
0.30871620
0.31968327
0.33185903
0.34547877
0.36084463
0.37835087
0.39852207
0.42207057
0.44997003
0.48349010
0.52394627
0.57114744
0.61570336
0.60610124
0.42834068
0.26502061
0.15793265
0.09370642
0.05597895
0.03378158
0.02060093
0.01268646
0.00788146
0.00493456
0.00311080
0.00197302
0.00125815
0.00080617
0.00051880
0.00033517
0.00021730
0.00014133
0.00009220
0.00006030
0.00003954
0.00002599
0.00001712
0.00001129
0.00000747
0.00000494
0.00000328
0.00000218
0.00000145
0.00000097
0.00000064
0.00000043
0.00000029
0.00000019
0.00000013
0.00000009
0.00000006
0.00000004
0.00000003
0.00000002
0.00000001
0.00000001
0.00000001
0.00000000
0.00000000
0.00000000
0.00000000
0.00000000
0.00000000
0.00000000
0.00000000
0.00000000
0.00000000
0.00000000
0.00000000
0.00000000
0.00000000
0.00000000
0.00000000
0.00000000
0.00000000
0.00000000
0.00000000
0.00000000
0.00000000
0.00000000
0.00000000
0.00000000
0.00000000
0.00000000
0.00000000
0.00000000
0.00000000
0.00000000
0.00000000
0.00000000
0.00000000
0.00000000
0.00000000
0.00000000
0.00000000
0.00000000
0.00000000
0.00000000
0.00000000
0.00000000
0.00000000
0.00000000
0.00000000
0.00000000
0.00000000
0.00000000
0.00000000
0.00000000
0.00000000
0.00000000
0.00000000
0.00000000
0.00000000
0.00000000
0.00000000
0.00000000
0.00000000
0.00000000
0.00000000
0.00000000
0.00000000
0.00000000
0.00000000
0.00000000
0.00000000
0.00000000
0.00000000
0.00000000
0.00000000
0.00000000
0.00000000
0.00000000
0.00000000
0.00000000
0.00000000
0.00000000
0.00000000
0.00000000
0.00000000
0.00000000
0.00000000
0.00001242
0.00002478
0.00003751
0.00005064
0.00006433
0.00007871
0.00009392
0.00011013
0.00012749
0.00014618
0.00016635
0.00018820
0.00021192
0.00023771
0.00026579
0.00029638
0.00032972
0.00036607
0.00040570
0.00044888
0.00049593
0.00054715
0.00060288
0.00066348
0.00072931
0.00080078
0.00087830
0.00096229
0.00105322
0.00115156
0.00125782
0.00137251
0.00149618
0.00162939
0.00177274
0.00192684
0.00209233
0.00226985
0.00246010
0.00266376
0.00288156
0.00311423
0.00336253
0.00362724
0.00390914
0.00420905
0.00452777
0.00486614
0.00522499
0.00560518
0.00600754
0.00643294
0.00688223
0.00735627
0.00785590
0.00838197
0.00893530
0.00951673
0.01012706
0.01076707
0.01143753
0.01213918
0.01287274
0.01363889
0.01443829
0.01527155
0.01613925
0.01704193
0.01798007
0.01895414
0.01996451
0.02101155
0.02209554
0.02321673
0.02437530
0.02557137
0.02680501
0.02807623
0.02938497
0.03073112
0.03211449
0.03353487
0.03499193
0.03648532
0.03801461
0.03957932
0.04117891
0.04281277
0.04448023
0.04618059
0.04791305
0.04967679
0.05147091
0.05329446
0.05514645
0.05702581
0.05893143
0.06086212
0.06281667
0.06479376
0.06679203
0.06881006
0.07084633
0.07289926
0.07496718
0.07704833
0.07914086
0.08124278
0.08335203
0.08546640
0.08758355
0.08970100
0.09181612
0.09392613
0.09602808
0.09811886
0.10019520
0.10225365
0.10429062
0.10630237
0.10828504
0.11023465
0.11214718
0.11401854
0.11584467
0.11762160
0.11934544
0.12101251
0.12261939
0.12416298
0.12564059
0.12705000
0.12838951
0.12965801
0.13085501
0.13198069
0.13303590
0.13402215
0.13494158
0.13579697
0.13659162
0.13732934
0.13801434
0.13865116
0.13924457
0.13979949
0.14032091
0.14081380
0.14128305
0.14173339
0.14216934
0.14259517
0.14301488
0.14343215
0.14385036
0.14427253
0.14470140
0.14513934
0.14558846
0.14605055
0.14652715
0.14701952
0.14752872
0.14805560
0.14860081
0.14916488
0.14974816
0.15035092
0.15097332
0.15161547
0.15227739
0.15295907
0.15366049
0.15438158
0.15512229
0.15588255
0.15666231
0.15746151
0.15828014
0.15911819
0.15997568
0.16085265
0.16174917
0.16266535
0.16360132
0.16455726
0.16553337
0.16652990
0.16754714
0.16858541
0.16964508
0.17072656
0.17183032
0.17295686
0.17410671
0.17528048
0.17647881
0.17770238
0.17895194
0.18022825
0.18153216
0.18286456
0.18422638
0.18561860
0.18704229
0.18849855
0.18998854
0.19151352
0.19307478
0.19467370
0.19631175
0.19799046
0.19971148
0.20147653
0.20328745
0.20514617
0.20705476
0.20901541
0.21103044
0.21310233
0.21523372
0.21742743
0.21968644
0.22201399
0.22441349
0.22688864
0.22944340
0.23208201
0.23480907
0.23762951
0.24054869
0.24357239
0.24670689
0.24995899
0.25333614
0.25684642
0.26049869
0.26430265
0.26826897
0.27240940
0.27673692
0.28126592
0.28601239
0.29099418
0.29623128
0.30174614
0.30756409
0.31371382
0.32022799
0.32714393
0.33450453
0.34235932
0.35076584
0.35979132
0.36951477
0.38002976
0.39144780
0.40390285
0.41755714
0.43260879
0.44930166
0.46793810
0.48889525
0.51264591
0.53978434
0.57104645
0.60726324
0.64894611
0.69387386
0.72318848
0.64054729
0.44447297
0.28156610
0.17325309
0.10589299
0.06484692
0.03992066
0.02473340
0.01542494
0.00968073
0.00611159
0.00387934
0.00247466
0.00158575
0.00102034
0.00065901
0.00042710
0.00027768
0.00018105
0.00011837
0.00007757
0.00005096
0.00003354
0.00002212
0.00001462
0.00000968
0.00000642
0.00000426
0.00000283
0.00000189
0.00000126
0.00000084
0.00000056
0.00000038
0.00000025
0.00000017
0.00000011
0.00000008
0.00000005
0.00000003
0.00000002
0.00000002
0.00000001
0.00000001
0.00000000
0.00000000
0.00000000
0.00000000
0.00000000
0.00000000
0.00000000
0.00000000
0.00000000
0.00000000
0.00000000
0.00000000
0.00000000
0.00000000
0.00000000
0.00000000
0.00000000
0.00000000
0.00000000
0.00000000
0.00000000
0.00000000
0.00000000
0.00000000
0.00000000
0.00000000
0.00000000
0.00000000
0.00000000
0.00000000
0.00000000
0.00000000
0.00000000
0.00000000
0.00000000
0.00000000
0.00000000
0.00000000
0.00000000
0.00000000
0.00000000
0.00000000
0.00000000
0.00000000
0.00000000
0.00000000
0.00000000
0.00000000
0.00000000
0.00000000
0.00000000
0.00000000
0.00000000
0.00000000
0.00000000
0.00000000
0.00000000
0.00000000
0.00000000
0.00000000
0.00000000
0.00000000
0.00000000
0.00000000
0.00000000
0.00000000
0.00000000
0.00000000
0.00000000
0.00000000
0.00000000
0.00000000
0.00000000
0.00000000
0.00000000
0.00000000
0.00000000
0.00000000
0.00000000
0.00000000
0.00000000
0.00000000
0.00000000
0.00000000
0.00001549
0.00003092
0.00004680
0.00006319
0.00008026
0.00009820
0.00011719
0.00013741
0.00015907
0.00018238
0.00020755
0.00023482
0.00026441
0.00029659
0.00033162
0.00036979
0.00041139
0.00045675
0.00050618
0.00056006
0.00061876
0.00068266
0.00075220
0.00082780
0.00090995
0.00099912
0.00109583
0.00120062
0.00131407
0.00143677
0.00156934
0.00171243
0.00186672
0.00203293
0.00221178
0.00240404
0.00261051
0.00283199
0.00306934
0.00332343
0.00359516
0.00388545
0.00419523
0.00452549
0.00487719
0.00525135
0.00564898
0.00607113
0.00651883
0.00699313
0.00749511
0.00802583
0.00858635
0.00917773
0.00980104
0.01045733
0.01114764
0.01187299
0.01263438
0.01343280
0.01426920
0.01514451
0.01605962
0.01701538
0.01801260
0.01905206
0.02013447
0.02126050
0.02243077
0.02364584
0.02490618
0.02621225
0.02756441
0.02896294
0.03040809
0.03190000
0.03343876
0.03502437
0.03665677
0.03833580
0.04006126
0.04183283
0.04365014
0.04551275
0.04742011
0.04937162
0.05136661
0.05340433
0.05548393
0.05760454
0.05976517
0.06196479
0.06420229
0.06647649
0.06878615
0.07112995
0.07350650
0.07591435
0.07835196
0.08081772
0.08330996
0.08582688
0.08836664
0.09092728
0.09350672
0.09610279
0.09871321
0.10133554
0.10396720
0.10660548
0.10924750
0.11189017
0.11453026
0.11716432
0.11978868
0.12239950
0.12499270
0.12756399
0.13010890
0.13262275
0.13510069
0.13753774
0.13992883
0.14226882
0.14455256
0.14677498
0.14893115
0.15101638
0.15302625
0.15495680
0.15680452
0.15856651
0.16024054
0.16182513
0.16331958
0.16472404
0.16603953
0.16726792
0.16841191
0.16947498
0.17046132
0.17137575
0.17222364
0.17301073
0.17374310
0.17442700
0.17506877
0.17567471
0.17625100
0.17680364
0.17733834
0.17786049
0.17837512
0.17888686
0.17939994
0.17991816
0.18044493
0.18098322
0.18153564
0.18210442
0.18269144
0.18329829
0.18392625
0.18457634
0.18524937
0.18594595
0.18666651
0.18741136
0.18818068
0.18897456
0.18979302
0.19063603
0.19150353
0.19239544
0.19331165
0.19425209
0.19521665
0.19620529
0.19721794
0.19825459
0.19931524
0.20039994
0.20150877
0.20264183
0.20379929
0.20498134
0.20618822
0.20742022
0.20867769
0.20996100
0.21127060
0.21260699
0.21397072
0.21536238
0.21678265
0.21823223
0.21971190
0.22122250
0.22276492
0.22434009
0.22594904
0.22759283
0.22927259
0.23098953
0.23274491
0.23454007
0.23637643
0.23825547
0.24017878
0.24214801
0.24416493
0.24623140
0.24834938
0.25052095
0.25274831
0.25503379
0.25737987
0.25978917
0.26226447
0.26480875
0.26742515
0.27011702
0.27288795
0.27574176
0.27868254
0.28171466
0.28484282
0.28807205
0.29140778
0.29485583
0.29842252
0.30211465
0.30593959
0.30990533
0.31402054
0.31829468
0.32273804
0.32736188
0.33217854
0.33720157
0.34244588
0.34792796
0.35366604
0.35968041
0.36599367
0.37263107
0.37962098
0.38699533
0.39479022
0.40304663
0.41181127
0.42113759
0.43108709
0.44173079
0.45315110
0.46544412
0.47872241
0.49311840
0.50878859
0.52591861
0.54472903
0.56548170
0.58848566
0.61410066
0.64273258
0.67479752
0.71054414
0.74916213
0.78428577
0.78249535
0.62756301
0.43027151
0.27798870
0.17570502
0.11022510
0.06906119
0.04334430
0.02729010
0.01724831
0.01094623
0.00697533
0.00446268
0.00286600
0.00184719
0.00119455
0.00077492
0.00050416
0.00032890
0.00021511
0.00014102
0.00009265
0.00006099
0.00004023
0.00002659
0.00001760
0.00001167
0.00000775
0.00000515
0.00000343
0.00000229
0.00000153
0.00000102
0.00000068
0.00000046
0.00000031
0.00000021
0.00000014
0.00000009
0.00000006
0.00000004
0.00000003
0.00000002
0.00000001
0.00000001
0.00000001
0.00000000
0.00000000
0.00000000
0.00000000
0.00000000
0.00000000
0.00000000
0.00000000
0.00000000
0.00000000
0.00000000
0.00000000
0.00000000
0.00000000
0.00000000
0.00000000
0.00000000
0.00000000
0.00000000
0.00000000
0.00000000
0.00000000
0.00000000
0.00000000
0.00000000
0.00000000
0.00000000
0.00000000
0.00000000
0.00000000
0.00000000
0.00000000
0.00000000
0.00000000
0.00000000
0.00000000
0.00000000
0.00000000
0.00000000
0.00000000
0.00000000
0.00000000
0.00000000
0.00000000
0.00000000
0.00000000
0.00000000
0.00000000
0.00000000
0.00000000
0.00000000
0.00000000
0.00000000
0.00000000
0.00000000
0.00000000
0.00000000
0.00000000
0.00000000
0.00000000
0.00000000
0.00000000
0.00000000
0.00000000
0.00000000
0.00000000
0.00000000
0.00000000
0.00000000
0.00000000
0.00000000
0.00000000
0.00000000
0.00000000
0.00000000
0.00000000
0.00000000
0.00000000
0.00000000
0.00000000
0.00000000
0.00000000
0.00000000
0.00001855
0.00003702
0.00005603
0.00007566
0.00009610
0.00011758
0.00014031
0.00016452
0.00019046
0.00021837
0.00024850
0.00028115
0.00031658
0.00035511
0.00039705
0.00044275
0.00049256
0.00054686
0.00060605
0.00067056
0.00074083
0.00081734
0.00090059
0.00099111
0.00108946
0.00119622
0.00131201
0.00143747
0.00157330
0.00172020
0.00187891
0.00205023
0.00223496
0.00243394
0.00264807
0.00287825
0.00312543
0.00339060
0.00367476
0.00397896
0.00430428
0.00465181
0.00502268
0.00541806
0.00583911
0.00628705
0.00676309
0.00726847
0.00780444
0.00837226
0.00897321
0.00960855
0.01027957
0.01098753
0.01173372
0.01251938
0.01334575
0.01421406
0.01512552
0.01608130
0.01708253
0.01813033
0.01922577
0.02036985
0.02156356
0.02280782
0.02410348
0.02545134
0.02685214
0.02830653
0.02981512
0.03137842
0.03299685
0.03467079
0.03640049
0.03818614
0.04002784
0.04192559
0.04387931
0.04588882
0.04795385
0.05007405
0.05224897
0.05447805
0.05676066
0.05909609
0.06148351
0.06392203
0.06641065
0.06894830
0.07153383
0.07416600
0.07684347
0.07956485
0.08232865
0.08513331
0.08797717
0.09085850
0.09377548
0.09672621
0.09970867
0.10272078
0.10576031
0.10882496
0.11191229
0.11501971
0.11814452
0.12128385
0.12443465
0.12759372
0.13075763
0.13392276
0.13708525
0.14024102
0.14338574
0.14651481
0.14962337
0.15270633
0.15575830
0.15877370
0.16174669
0.16467127
0.16754128
0.17035050
0.17309265
0.17576155
0.17835113
0.18085559
0.18326950
0.18558788
0.18780637
0.18992130
0.19192981
0.19382998
0.19562083
0.19730245
0.19887599
0.20034367
0.20170873
0.20297540
0.20414880
0.20523480
0.20623997
0.20717136
0.20803640
0.20884276
0.20959817
0.21031035
0.21098684
0.21163493
0.21226157
0.21287330
0.21347621
0.21407590
0.21467747
0.21528548
0.21590401
0.21653664
0.21718647
0.21785614
0.21854790
0.21926359
0.22000471
0.22077247
0.22156779
0.22239135
0.22324363
0.22412497
0.22503554
0.22597541
0.22694459
0.22794301
0.22897056
0.23002712
0.23111255
0.23222672
0.23336951
0.23454082
0.23574057
0.23696872
0.23822527
0.23951023
0.24082368
0.24216574
0.24353656
0.24493637
0.24636542
0.24782405
0.24931261
0.25083156
0.25238140
0.25396268
0.25557603
0.25722215
0.25890180
0.26061579
0.26236503
0.26415048
0.26597314
0.26783414
0.26973461
0.27167580
0.27365902
0.27568564
0.27775712
0.27987501
0.28204093
0.28425659
0.28652380
0.28884448
0.29122064
0.29365442
0.29614805
0.29870392
0.30132454
0.30401258
0.30677085
0.30960236
0.31251026
0.31549793
0.31856895
0.32172711
0.32497648
0.32832136
0.33176638
0.33531646
0.33897688
0.34275330
0.34665178
0.35067887
0.35484158
0.35914750
0.36360481
0.36822238
0.37300978
0.37797743
0.38313664
0.38849973
0.39408014
0.39989260
0.40595323
0.41227978
0.41889180
0.42581090
0.43306104
0.44066882
0.44866393
0.45707955
0.46595286
0.47532573
0.48524536
0.49576524
0.50694605
0.51885697
0.53157695
0.54519633
0.55981865
0.57556259
0.59256420
0.61097900
0.63098375
0.65277692
0.67657623
0.70260953
0.73108649
0.76210068
0.79520292
0.82725316
0.84180678
0.77101665
0.58062964
0.39750524
0.26172909
0.16937943
0.10873619
0.06956385
0.04446344
0.02843832
0.01821786
0.01169576
0.00752722
0.00485713
0.00314254
0.00203857
0.00132581
0.00086439
0.00056488
0.00036997
0.00024283
0.00015970
0.00010523
0.00006946
0.00004593
0.00003042
0.00002017
0.00001340
0.00000891
0.00000593
0.00000396
0.00000264
0.00000177
0.00000118
0.00000079
0.00000053
0.00000036
0.00000024
0.00000016
0.00000011
0.00000007
0.00000005
0.00000003
0.00000002
0.00000001
0.00000001
0.00000001
0.00000000
0.00000000
0.00000000
0.00000000
0.00000000
0.00000000
0.00000000
0.00000000
0.00000000
0.00000000
0.00000000
0.00000000
0.00000000
0.00000000
0.00000000
0.00000000
0.00000000
0.00000000
0.00000000
0.00000000
0.00000000
0.00000000
0.00000000
0.00000000
0.00000000
0.00000000
0.00000000
0.00000000
0.00000000
0.00000000
0.00000000
0.00000000
0.00000000
0.00000000
0.00000000
0.00000000
0.00000000
0.00000000
0.00000000
0.00000000
0.00000000
0.00000000
0.00000000
0.00000000
0.00000000
0.00000000
0.00000000
0.00000000
0.00000000
0.00000000
0.00000000
0.00000000
0.00000000
0.00000000
0.00000000
0.00000000
0.00000000
0.00000000
0.00000000
0.00000000
0.00000000
0.00000000
0.00000000
0.00000000
0.00000000
0.00000000
0.00000000
0.00000000
0.00000000
0.00000000
0.00000000
0.00000000
0.00000000
0.00000000
0.00000000
0.00000000
0.00000000
0.00000000
0.00000000
0.00000000
0.00000000
0.00000000
0.00000000
0.00002158
0.00004307
0.00006520
0.00008803
0.00011182
0.00013681
0.00016326
0.00019143
0.00022161
0.00025408
0.00028915
0.00032713
0.00036836
0.00041319
0.00046199
0.00051516
0.00057312
0.00063630
0.00070517
0.00078023
0.00086199
0.00095102
0.00104788
0.00115320
0.00126763
0.00139185
0.00152657
0.00167255
0.00183059
0.00200150
0.00218617
0.00238550
0.00260043
0.00283195
0.00308108
0.00334889
0.00363648
0.00394500
0.00427561
0.00462954
0.00500803
0.00541236
0.00584386
0.00630386
0.00679373
0.00731488
0.00786871
0.00845668
0.00908024
0.00974084
0.01043998
0.01117914
0.01195979
0.01278342
0.01365151
0.01456551
0.01552687
0.01653702
0.01759735
0.01870922
0.01987397
0.02109288
0.02236718
0.02369807
0.02508667
0.02653405
0.02804121
0.02960908
0.03123850
0.03293025
0.03468501
0.03650338
0.03838586
0.04033286
0.04234470
0.04442159
0.04656363
0.04877083
0.05104309
0.05338019
0.05578184
0.05824760
0.06077695
0.06336925
0.06602377
0.06873965
0.07151596
0.07435164
0.07724555
0.08019644
0.08320296
0.08626367
0.08937705
0.09254147
0.09575520
0.09901644
0.10232328
0.10567372
0.10906565
0.11249690
0.11596514
0.11946796
0.12300283
0.12656708
0.13015792
0.13377240
0.13740740
0.14105965
0.14472565
0.14840173
0.15208396
0.15576818
0.15944998
0.16312466
0.16678722
0.17043237
0.17405450
0.17764769
0.18120570
0.18472201
0.18818980
0.19160204
0.19495147
0.19823074
0.20143240
0.20454906
0.20757347
0.21049865
0.21331801
0.21602550
0.21861575
0.22108424
0.22342737
0.22564268
0.22772885
0.22968582
0.23151486
0.23321848
0.23480051
0.23626593
0.23762081
0.23887220
0.24002791
0.24109639
0.24208653
0.24300747
0.24386846
0.24467869
0.24544714
0.24618246
0.24689287
0.24758613
0.24826940
0.24894926
0.24963170
0.25032206
0.25102508
0.25174493
0.25248518
0.25324890
0.25403864
0.25485652
0.25570423
0.25658312
0.25749420
0.25843821
0.25941567
0.26042690
0.26147206
0.26255119
0.26366423
0.26481109
0.26599158
0.26720555
0.26845279
0.26973313
0.27104639
0.27239244
0.27377115
0.27518247
0.27662634
0.27810278
0.27961184
0.28115362
0.28272829
0.28433607
0.28597721
0.28765207
0.28936104
0.29110461
0.29288330
0.29469775
0.29654863
0.29843671
0.30036283
0.30232791
0.30433294
0.30637899
0.30846719
0.31059876
0.31277500
0.31499727
0.31726703
0.31958581
0.32195524
0.32437701
0.32685293
0.32938491
0.33197494
0.33462514
0.33733774
0.34011508
0.34295965
0.34587406
0.34886110
0.35192367
0.35506489
0.35828804
0.36159658
0.36499419
0.36848480
0.37207253
0.37576181
0.37955733
0.38346407
0.38748738
0.39163296
0.39590688
0.40031569
0.40486639
0.40956649
0.41442408
0.41944788
0.42464727
0.43003240
0.43561422
0.44140460
0.44741641
0.45366364
0.46016152
0.46692666
0.47397723
0.48133313
0.48901621
0.49705056
0.50546270
0.51428200
0.52354098
0.53327575
0.54352647
0.55433791
0.56576007
0.57784886
0.59066687
0.60428412
0.61877892
0.63423852
0.65075975
0.66844925
0.68742316
0.70780553
0.72972448
0.75330369
0.77864134
0.80574468
0.83426280
0.86231112
0.88108835
0.85537730
0.70795777
0.51642235
0.35576395
0.23855495
0.15765563
0.10330754
0.06735250
0.04378679
0.02842942
0.01845428
0.01198553
0.00779242
0.00507328
0.00330826
0.00216101
0.00141412
0.00092703
0.00060879
0.00040050
0.00026391
0.00017419
0.00011515
0.00007624
0.00005055
0.00003356
0.00002231
0.00001485
0.00000990
0.00000660
0.00000441
0.00000295
0.00000197
0.00000132
0.00000089
0.00000059
0.00000040
0.00000027
0.00000018
0.00000012
0.00000008
0.00000006
0.00000004
0.00000003
0.00000002
0.00000001
0.00000001
0.00000001
0.00000000
0.00000000
0.00000000
0.00000000