# vtk DataFile Version 3.0
Concentration output
ASCII
DATASET STRUCTURED_POINTS
DIMENSIONS 398 98 1
ORIGIN 0 0 0
SPACING 0.03 0.03 1.0
POINT_DATA 39004
SCALARS concentration float 1
LOOKUP_TABLE default
0.00001625
0.00003231
0.00004862
0.00006510
0.00008183
0.00009886
0.00011624
0.00013406
0.00015236
0.00017120
0.00019065
0.00021078
0.00023165
0.00025331
0.00027584
0.00029930
0.00032376
0.00034929
0.00037594
0.00040380
0.00043294
0.00046341
0.00049529
0.00052866
0.00056359
0.00060014
0.00063840
0.00067844
0.00072034
0.00076416
0.00080999
0.00085790
0.00090797
0.00096028
0.00101491
0.00107193
0.00113142
0.00119346
0.00125813
0.00132551
0.00139567
0.00146869
0.00154464
0.00162361
0.00170567
0.00179089
0.00187935
0.00197111
0.00206625
0.00216484
0.00226695
0.00237263
0.00248196
0.00259500
0.00271180
0.00283243
0.00295694
0.00308538
0.00321780
0.00335426
0.00349478
0.00363943
0.00378822
0.00394121
0.00409842
0.00425987
0.00442560
0.00459562
0.00476995
0.00494861
0.00513160
0.00531894
0.00551061
0.00570662
0.00590697
0.00611164
0.00632062
0.00653388
0.00675141
0.00697319
0.00719916
0.00742932
0.00766360
0.00790197
0.00814438
0.00839077
0.00864110
0.00889529
0.00915328
0.00941501
0.00968039
0.00994935
0.01022180
0.01049766
0.01077682
0.01105920
0.01134469
0.01163318
0.01192455
0.01221869
0.01251548
0.01281477
0.01311643
0.01342033
0.01372629
0.01403418
0.01434382
0.01465503
0.01496764
0.01528145
0.01559627
0.01591187
0.01622804
0.01654455
0.01686116
0.01717760
0.01749363
0.01780895
0.01812329
0.01843634
0.01874780
0.01905733
0.01936460
0.01966928
0.01997102
0.02026944
0.02056419
0.02085490
0.02114120
0.02142270
0.02169904
0.02196985
0.02223477
0.02249345
0.02274556
0.02299078
0.02322881
0.02345938
0.02368225
0.02389719
0.02410404
0.02430264
0.02449288
0.02467470
0.02484808
0.02501303
0.02516960
0.02531791
0.02545808
0.02559030
0.02571478
0.02583177
0.02594155
0.02604443
0.02614073
0.02623081
0.02631502
0.02639375
0.02646737
0.02653626
0.02660082
0.02666143
0.02671845
0.02677225
0.02682319
0.02687160
0.02691780
0.02696210
0.02700480
0.02704616
0.02708644
0.02712587
0.02716466
0.02720303
0.02724114
0.02727917
0.02731727
0.02735557
0.02739420
0.02743326
0.02747284
0.02751305
0.02755393
0.02759558
0.02763803
0.02768134
0.02772555
0.02777069
0.02781679
0.02786388
0.02791197
0.02796108
0.02801122
0.02806239
0.02811461
0.02816788
0.02822220
0.02827756
0.02833398
0.02839144
0.02844994
0.02850949
0.02857009
0.02863172
0.02869439
0.02875809
0.02882284
0.02888862
0.02895543
0.02902329
0.02909219
0.02916213
0.02923313
0.02930518
0.02937829
0.02945247
0.02952773
0.02960407
0.02968150
0.02976004
0.02983968
0.02992044
0.03000234
0.03008537
0.03016955
0.03025490
0.03034141
0.03042911
0.03051800
0.03060809
0.03069941
0.03079195
0.03088573
0.03098078
0.03107709
0.03117469
0.03127360
0.03137382
0.03147538
0.03157830
0.03168260
0.03178829
0.03189540
0.03200394
0.03211395
0.03222544
0.03233843
0.03245295
0.03256903
0.03268668
0.03280592
0.03292680
0.03304932
0.03317352
0.03329941
0.03342704
0.03355641
0.03368757
0.03382054
0.03395534
0.03409201
0.03423058
0.03437108
0.03451354
0.03465800
0.03480449
0.03495305
0.03510371
0.03525651
0.03541149
0.03556870
0.03572816
0.03588994
0.03605406
0.03622058
0.03638955
0.03656101
0.03673503
0.03691165
0.03709093
0.03727294
0.03745773
0.03764538
0.03783594
0.03802950
0.03822612
0.03842589
0.03862887
0.03883516
0.03904483
0.03925797
0.03947468
0.03969504
0.03991915
0.04014712
0.04037904
0.04061503
0.04085519
0.04109964
0.04134852
0.04160193
0.04186001
0.04212291
0.04239077
0.04266373
0.04294195
0.04322559
0.04351483
0.04380984
0.04411082
0.04441795
0.04473144
0.04505151
0.04537838
0.04571229
0.04605348
0.04640222
0.04675879
0.04712345
0.04749653
0.04787833
0.04826919
0.04866946
0.04907951
0.04949974
0.04993056
0.05037240
0.05082574
0.05129107
0.05176892
0.05225983
0.05276440
0.05328327
0.05381711
0.05436662
0.05493257
0.05551579
0.05611713
0.05673754
0.05737802
0.05803965
0.05872360
0.05943111
0.06016355
0.06092239
0.06170923
0.06252580
0.06337402
0.06425594
0.06517386
0.06613026
0.06712790
0.06816981
0.06925937
0.07040031
0.07159681
0.07285353
0.07417570
0.07556924
0.07704083
0.07859809
0.08024973
0.08200575
0.08387774
0.08587918
0.08802586
0.09033646
0.09283320
0.09554281
0.09849774
0.10173790
0.10531297
0.10928576
0.11373702
0.11877270
0.12453508
0.13122117
0.13911476
0.14864353
0.16047734
0.17568993
0.19605498
0.22476183
0.26745362
0.31977555
0.23152243
0.13146485
0.07153588
0.03951218
0.02241973
0.01304508
0.00774580
0.00466909
0.00284095
0.00173010
0.00103627
0.00058327
0.00026427
0.00003248
0.00006459
0.00009718
0.00013014
0.00016357
0.00019761
0.00023237
0.00026798
0.00030455
0.00034222
0.00038111
0.00042134
0.00046305
0.00050636
0.00055139
0.00059829
0.00064719
0.00069821
0.00075150
0.00080719
0.00086542
0.00092633
0.00099007
0.00105677
0.00112659
0.00119966
0.00127614
0.00135618
0.00143992
0.00152752
0.00161913
0.00171490
0.00181500
0.00191956
0.00202876
0.00214274
0.00226166
0.00238568
0.00251495
0.00264963
0.00278987
0.00293584
0.00308767
0.00324553
0.00340956
0.00357991
0.00375673
0.00394016
0.00413034
0.00432742
0.00453152
0.00474278
0.00496132
0.00518728
0.00542076
0.00566189
0.00591077
0.00616752
0.00643223
0.00670499
0.00698590
0.00727503
0.00757247
0.00787828
0.00819253
0.00851526
0.00884654
0.00918641
0.00953489
0.00989202
0.01025781
0.01063228
0.01101542
0.01140724
0.01180772
0.01221685
0.01263458
0.01306089
0.01349573
0.01393904
0.01439076
0.01485083
0.01531915
0.01579564
0.01628022
0.01677276
0.01727315
0.01778128
0.01829701
0.01882020
0.01935070
0.01988835
0.02043299
0.02098444
0.02154250
0.02210700
0.02267771
0.02325443
0.02383692
0.02442494
0.02501825
0.02561659
0.02621968
0.02682722
0.02743893
0.02805448
0.02867354
0.02929576
0.02992078
0.03054822
0.03117767
0.03180872
0.03244092
0.03307381
0.03370690
0.03433970
0.03497167
0.03560227
0.03623090
0.03685698
0.03747989
0.03809897
0.03871357
0.03932300
0.03992655
0.04052350
0.04111313
0.04169469
0.04226743
0.04283061
0.04338348
0.04392529
0.04445534
0.04497291
0.04547735
0.04596800
0.04644427
0.04690561
0.04735153
0.04778159
0.04819544
0.04859277
0.04897337
0.04933710
0.04968391
0.05001384
0.05032699
0.05062357
0.05090386
0.05116821
0.05141706
0.05165090
0.05187030
0.05207587
0.05226827
0.05244820
0.05261639
0.05277359
0.05292057
0.05305810
0.05318695
0.05330788
0.05342164
0.05352897
0.05363057
0.05372712
0.05381925
0.05390760
0.05399274
0.05407521
0.05415551
0.05423412
0.05431148
0.05438797
0.05446397
0.05453980
0.05461577
0.05469215
0.05476918
0.05484707
0.05492603
0.05500621
0.05508777
0.05517083
0.05525551
0.05534191
0.05543010
0.05552016
0.05561213
0.05570608
0.05580202
0.05590001
0.05600005
0.05610216
0.05620635
0.05631264
0.05642101
0.05653149
0.05664405
0.05675871
0.05687546
0.05699428
0.05711519
0.05723816
0.05736321
0.05749033
0.05761951
0.05775076
0.05788408
0.05801948
0.05815695
0.05829651
0.05843816
0.05858191
0.05872779
0.05887579
0.05902594
0.05917824
0.05933273
0.05948941
0.05964831
0.05980944
0.05997282
0.06013848
0.06030644
0.06047670
0.06064931
0.06082427
0.06100162
0.06118136
0.06136354
0.06154817
0.06173528
0.06192490
0.06211705
0.06231177
0.06250909
0.06270904
0.06291166
0.06311698
0.06332504
0.06353589
0.06374957
0.06396611
0.06418556
0.06440797
0.06463338
0.06486184
0.06509339
0.06532808
0.06556596
0.06580708
0.06605149
0.06629924
0.06655037
0.06680495
0.06706303
0.06732465
0.06758988
0.06785877
0.06813139
0.06840779
0.06868804
0.06897220
0.06926034
0.06955253
0.06984883
0.07014933
0.07045409
0.07076320
0.07107673
0.07139478
0.07171741
0.07204473
0.07237682
0.07271379
0.07305572
0.07340274
0.07375494
0.07411245
0.07447537
0.07484385
0.07521800
0.07559796
0.07598388
0.07637590
0.07677418
0.07717886
0.07759011
0.07800809
0.07843299
0.07886498
0.07930424
0.07975096
0.08020535
0.08066761
0.08113795
0.08161659
0.08210377
0.08259974
0.08310473
0.08361902
0.08414287
0.08467657
0.08522041
0.08577472
0.08633980
0.08691600
0.08750367
0.08810319
0.08871493
0.08933931
0.08997675
0.09062770
0.09129262
0.09197201
0.09266639
0.09337628
0.09410226
0.09484493
0.09560491
0.09638287
0.09717949
0.09799552
0.09883172
0.09968892
0.10056798
0.10146983
0.10239544
0.10334584
0.10432214
0.10532550
0.10635717
0.10741846
0.10851079
0.10963567
0.11079469
0.11198958
0.11322217
0.11449444
0.11580851
0.11716667
0.11857138
0.12002531
0.12153134
0.12309262
0.12471254
0.12639482
0.12814353
0.12996311
0.13185843
0.13383488
0.13589837
0.13805547
0.14031344
0.14268039
0.14516538
0.14777855
0.15053134
0.15343668
0.15650925
0.15976581
0.16322559
0.16691078
0.17084716
0.17506482
0.17959922
0.18449240
0.18979470
0.19556695
0.20188343
0.20883600
0.21653977
0.22514117
0.23482966
0.24585528
0.25855606
0.27340330
0.29107698
0.31258030
0.33937015
0.37339209
0.41667828
0.46859750
0.50521924
0.36219123
0.21644209
0.12393192
0.07108808
0.04137687
0.02448475
0.01470439
0.00893418
0.00546734
0.00334368
0.00200901
0.00113326
0.00051414
0.00004868
0.00009680
0.00014565
0.00019504
0.00024514
0.00029616
0.00034825
0.00040162
0.00045644
0.00051289
0.00057117
0.00063147
0.00069398
0.00075888
0.00082638
0.00089667
0.00096994
0.00104641
0.00112628
0.00120974
0.00129701
0.00138830
0.00148382
0.00158379
0.00168843
0.00179794
0.00191256
0.00203251
0.00215802
0.00228930
0.00242660
0.00257013
0.00272014
0.00287686
0.00304051
0.00321133
0.00338955
0.00357542
0.00376916
0.00397101
0.00418119
0.00439994
0.00462750
0.00486408
0.00510991
0.00536521
0.00563021
0.00590512
0.00619014
0.00648550
0.00679138
0.00710799
0.00743552
0.00777416
0.00812408
0.00848546
0.00885846
0.00924324
0.00963995
0.01004874
0.01046973
0.01090305
0.01134882
0.01180713
0.01227809
0.01276177
0.01325826
0.01376761
0.01428988
0.01482510
0.01537331
0.01593452
0.01650873
0.01709595
0.01769615
0.01830930
0.01893536
0.01957427
0.02022596
0.02089036
0.02156736
0.02225686
0.02295874
0.02367288
0.02439912
0.02513730
0.02588726
0.02664882
0.02742177
0.02820591
0.02900101
0.02980683
0.03062313
0.03144965
0.03228609
0.03313218
0.03398759
0.03485201
0.03572510
0.03660651
0.03749585
0.03839273
0.03929675
0.04020748
0.04112446
0.04204723
0.04297528
0.04390810
0.04484515
0.04578584
0.04672959
0.04767576
0.04862370
0.04957271
0.05052208
0.05147104
0.05241880
0.05336454
0.05430739
0.05524647
0.05618083
0.05710951
0.05803152
0.05894581
0.05985135
0.06074705
0.06163180
0.06250449
0.06336400
0.06420920
0.06503897
0.06585218
0.06664776
0.06742465
0.06818183
0.06891833
0.06963325
0.07032576
0.07099511
0.07164064
0.07226180
0.07285813
0.07342931
0.07397513
0.07449550
0.07499047
0.07546021
0.07590501
0.07632530
0.07672162
0.07709461
0.07744503
0.07777372
0.07808161
0.07836970
0.07863904
0.07889073
0.07912591
0.07934573
0.07955136
0.07974395
0.07992467
0.08009463
0.08025494
0.08040665
0.08055080
0.08068834
0.08082021
0.08094727
0.08107034
0.08119018
0.08130750
0.08142293
0.08153709
0.08165051
0.08176370
0.08187709
0.08199111
0.08210610
0.08222239
0.08234027
0.08246000
0.08258179
0.08270584
0.08283231
0.08296135
0.08309308
0.08322760
0.08336500
0.08350534
0.08364869
0.08379508
0.08394454
0.08409710
0.08425279
0.08441160
0.08457354
0.08473861
0.08490681
0.08507814
0.08525259
0.08543015
0.08561081
0.08579457
0.08598142
0.08617137
0.08636439
0.08656051
0.08675971
0.08696201
0.08716741
0.08737592
0.08758755
0.08780233
0.08802026
0.08824138
0.08846569
0.08869323
0.08892402
0.08915809
0.08939547
0.08963619
0.08988027
0.09012774
0.09037865
0.09063301
0.09089086
0.09115224
0.09141718
0.09168570
0.09195786
0.09223367
0.09251319
0.09279645
0.09308350
0.09337438
0.09366914
0.09396783
0.09427050
0.09457721
0.09488801
0.09520297
0.09552214
0.09584558
0.09617338
0.09650558
0.09684226
0.09718349
0.09752934
0.09787987
0.09823517
0.09859530
0.09896033
0.09933035
0.09970543
0.10008564
0.10047107
0.10086180
0.10125790
0.10165948
0.10206660
0.10247937
0.10289788
0.10332223
0.10375251
0.10418882
0.10463128
0.10507999
0.10553505
0.10599660
0.10646473
0.10693959
0.10742129
0.10790996
0.10840575
0.10890880
0.10941925
0.10993726
0.11046299
0.11099662
0.11153832
0.11208828
0.11264668
0.11321374
0.11378966
0.11437466
0.11496896
0.11557280
0.11618641
0.11681004
0.11744395
0.11808841
0.11874368
0.11941004
0.12008780
0.12077726
0.12147873
0.12219255
0.12291905
0.12365859
0.12441155
0.12517831
0.12595927
0.12675486
0.12756552
0.12839169
0.12923387
0.13009254
0.13096823
0.13186149
0.13277288
0.13370302
0.13465252
0.13562204
0.13661228
0.13762396
0.13865783
0.13971470
0.14079540
0.14190081
0.14303185
0.14418949
0.14537476
0.14658873
0.14783254
0.14910740
0.15041459
0.15175544
0.15313140
0.15454398
0.15599480
0.15748557
0.15901810
0.16059435
0.16221636
0.16388635
0.16560665
0.16737978
0.16920842
0.17109545
0.17304397
0.17505729
0.17713900
0.17929299
0.18152343
0.18383489
0.18623229
0.18872101
0.19130693
0.19399646
0.19679665
0.19971521
0.20276068
0.20594245
0.20927096
0.21275779
0.21641586
0.22025962
0.22430531
0.22857123
0.23307811
0.23784956
0.24291254
0.24829806
0.25404197
0.26018593
0.26677874
0.27387791
0.28155177
0.28988219
0.29896819
0.30893075
0.31991935
0.33212091
0.34577223
0.36117743
0.37873327
0.39896736
0.42259633
0.45060239
0.48427402
0.52495481
0.57240968
0.61651579
0.60285530
0.42426799
0.26214378
0.15617583
0.09266488
0.05535744
0.03339822
0.02034808
0.01249769
0.00771137
0.00474596
0.00286516
0.00162167
0.00073724
0.00006483
0.00012891
0.00019396
0.00025973
0.00032647
0.00039440
0.00046378
0.00053485
0.00060785
0.00068303
0.00076065
0.00084095
0.00092419
0.00101062
0.00110051
0.00119411
0.00129170
0.00139353
0.00149989
0.00161104
0.00172726
0.00184884
0.00197605
0.00210918
0.00224852
0.00239436
0.00254701
0.00270675
0.00287388
0.00304872
0.00323156
0.00342271
0.00362247
0.00383117
0.00404911
0.00427659
0.00451394
0.00476146
0.00501947
0.00528827
0.00556817
0.00585949
0.00616253
0.00647758
0.00680496
0.00714495
0.00749785
0.00786394
0.00824351
0.00863684
0.00904418
0.00946582
0.00990199
0.01035295
0.01081894
0.01130019
0.01179692
0.01230934
0.01283764
0.01338202
0.01394266
0.01451971
0.01511334
0.01572368
0.01635085
0.01699497
0.01765614
0.01833445
0.01902995
0.01974271
0.02047276
0.02122012
0.02198481
0.02276682
0.02356611
0.02438265
0.02521638
0.02606723
0.02693510
0.02781989
0.02872147
0.02963970
0.03057443
0.03152547
0.03249264
0.03347572
0.03447450
0.03548872
0.03651812
0.03756243
0.03862135
0.03969456
0.04078174
0.04188253
0.04299657
0.04412346
0.04526279
0.04641415
0.04757706
0.04875108
0.04993569
0.05113039
0.05233462
0.05354782
0.05476939
0.05599870
0.05723510
0.05847791
0.05972639
0.06097979
0.06223731
0.06349814
0.06476138
0.06602612
0.06729141
0.06855624
0.06981956
0.07108027
0.07233722
0.07358923
0.07483505
0.07607340
0.07730294
0.07852230
0.07973008
0.08092484
0.08210509
0.08326934
0.08441610
0.08554385
0.08665107
0.08773628
0.08879802
0.08983486
0.09084543
0.09182842
0.09278263
0.09370691
0.09460026
0.09546178
0.09629072
0.09708648
0.09784858
0.09857676
0.09927088
0.09993099
0.10055733
0.10115028
0.10171041
0.10223844
0.10273524
0.10320182
0.10363931
0.10404897
0.10443212
0.10479020
0.10512469
0.10543709
0.10572898
0.10600191
0.10625744
0.10649712
0.10672245
0.10693492
0.10713594
0.10732688
0.10750903
0.10768365
0.10785187
0.10801480
0.10817344
0.10832873
0.10848154
0.10863267
0.10878283
0.10893269
0.10908285
0.10923383
0.10938613
0.10954017
0.10969633
0.10985495
0.11001632
0.11018070
0.11034831
0.11051933
0.11069394
0.11087225
0.11105440
0.11124045
0.11143050
0.11162460
0.11182278
0.11202508
0.11223152
0.11244212
0.11265687
0.11287579
0.11309886
0.11332607
0.11355742
0.11379290
0.11403250
0.11427620
0.11452401
0.11477590
0.11503188
0.11529195
0.11555611
0.11582437
0.11609673
0.11637321
0.11665383
0.11693861
0.11722756
0.11752073
0.11781813
0.11811980
0.11842579
0.11873611
0.11905082
0.11936994
0.11969353
0.12002162
0.12035425
0.12069147
0.12103332
0.12137984
0.12173107
0.12208707
0.12244787
0.12281353
0.12318409
0.12355962
0.12394016
0.12432577
0.12471652
0.12511248
0.12551370
0.12592027
0.12633226
0.12674975
0.12717282
0.12760155
0.12803603
0.12847634
0.12892259
0.12937486
0.12983324
0.13029782
0.13076871
0.13124600
0.13172979
0.13222017
0.13271724
0.13322112
0.13373190
0.13424970
0.13477461
0.13530676
0.13584625
0.13639322
0.13694778
0.13751005
0.13808018
0.13865828
0.13924451
0.13983900
0.14044189
0.14105335
0.14167352
0.14230256
0.14294065
0.14358795
0.14424464
0.14491091
0.14558696
0.14627298
0.14696920
0.14767582
0.14839310
0.14912127
0.14986058
0.15061130
0.15137371
0.15214808
0.15293473
0.15373394
0.15454604
0.15537134
0.15621019
0.15706292
0.15792991
0.15881151
0.15970811
0.16062012
0.16154793
0.16249199
0.16345275
0.16443066
0.16542621
0.16643992
0.16747230
0.16852391
0.16959531
0.17068711
0.17179992
0.17293440
0.17409123
0.17527112
0.17647482
0.17770310
0.17895679
0.18023673
0.18154384
0.18287906
0.18424336
0.18563780
0.18706345
0.18852145
0.19001301
0.19153938
0.19310189
0.19470194
0.19634100
0.19802064
0.19974250
0.20150833
0.20331999
0.20517943
0.20708874
0.20905013
0.21106596
0.21313872
0.21527106
0.21746583
0.21972603
0.22205490
0.22445587
0.22693263
0.22948915
0.23212967
0.23485877
0.23768140
0.24060289
0.24362902
0.24676608
0.25002087
0.25340083
0.25691407
0.26056947
0.26437676
0.26834664
0.27249089
0.27682255
0.28135606
0.28610747
0.29109468
0.29633774
0.30185914
0.30768429
0.31384195
0.32036485
0.32729038
0.33466153
0.34252792
0.35094719
0.35998668
0.36972559
0.38025768
0.39169481
0.40417143
0.41785051
0.43293120
0.44965877
0.46833735
0.48934606
0.51315961
0.54037392
0.57172760
0.60805728
0.64987648
0.69490997
0.72366268
0.63648511
0.44040524
0.27871852
0.17144281
0.10477563
0.06415497
0.03947991
0.02443397
0.01519505
0.00946870
0.00587306
0.00356691
0.00202760
0.00092423
0.00008092
0.00016089
0.00024208
0.00032416
0.00040745
0.00049224
0.00057883
0.00066752
0.00075863
0.00085247
0.00094934
0.00104956
0.00115345
0.00126132
0.00137351
0.00149033
0.00161212
0.00173922
0.00187196
0.00201068
0.00215573
0.00230746
0.00246623
0.00263238
0.00280629
0.00298831
0.00317882
0.00337818
0.00358678
0.00380498
0.00403317
0.00427174
0.00452106
0.00478152
0.00505352
0.00533743
0.00563365
0.00594257
0.00626457
0.00660005
0.00694938
0.00731296
0.00769116
0.00808437
0.00849295
0.00891727
0.00935770
0.00981460
0.01028832
0.01077921
0.01128759
0.01181381
0.01235817
0.01292099
0.01350256
0.01410318
0.01472311
0.01536262
0.01602196
0.01670137
0.01740106
0.01812125
0.01886211
0.01962383
0.02040657
0.02121045
0.02203562
0.02288216
0.02375018
0.02463972
0.02555085
0.02648359
0.02743796
0.02841393
0.02941148
0.03043056
0.03147110
0.03253300
0.03361615
0.03472042
0.03584566
0.03699168
0.03815828
0.03934527
0.04055238
0.04177937
0.04302594
0.04429181
0.04557664
0.04688009
0.04820179
0.04954135
0.05089836
0.05227238
0.05366296
0.05506961
0.05649182
0.05792906
0.05938078
0.06084639
0.06232527
0.06381678
0.06532025
0.06683498
0.06836021
0.06989518
0.07143907
0.07299103
0.07455017
0.07611553
0.07768615
0.07926098
0.08083895
0.08241890
0.08399966
0.08557998
0.08715854
0.08873398
0.09030487
0.09186973
0.09342701
0.09497511
0.09651236
0.09803706
0.09954742
0.10104165
0.10251791
0.10397430
0.10540896
0.10681996
0.10820541
0.10956343
0.11089216
0.11218981
0.11345465
0.11468501
0.11587934
0.11703622
0.11815435
0.11923259
0.12026997
0.12126571
0.12221922
0.12313012
0.12399825
0.12482365
0.12560661
0.12634762
0.12704737
0.12770678
0.12832694
0.12890912
0.12945477
0.12996545
0.13044285
0.13088878
0.13130510
0.13169373
0.13205665
0.13239581
0.13271319
0.13301073
0.13329034
0.13355388
0.13380312
0.13403978
0.13426550
0.13448182
0.13469020
0.13489199
0.13508845
0.13528078
0.13547003
0.13565720
0.13584320
0.13602884
0.13621487
0.13640196
0.13659069
0.13678161
0.13697519
0.13717184
0.13737193
0.13757578
0.13778365
0.13799578
0.13821238
0.13843360
0.13865959
0.13889046
0.13912630
0.13936717
0.13961313
0.13986422
0.14012046
0.14038186
0.14064844
0.14092019
0.14119710
0.14147916
0.14176636
0.14205869
0.14235613
0.14265866
0.14296628
0.14327897
0.14359673
0.14391956
0.14424745
0.14458042
0.14491848
0.14526163
0.14560991
0.14596333
0.14632193
0.14668574
0.14705481
0.14742916
0.14780886
0.14819393
0.14858444
0.14898043
0.14938195
0.14978906
0.15020180
0.15062023
0.15104441
0.15147438
0.15191020
0.15235193
0.15279963
0.15325334
0.15371315
0.15417910
0.15465127
0.15512972
0.15561455
0.15610582
0.15660361
0.15710803
0.15761916
0.15813709
0.15866194
0.15919380
0.15973278
0.16027899
0.16083254
0.16139355
0.16196213
0.16253839
0.16312247
0.16371447
0.16431451
0.16492273
0.16553924
0.16616417
0.16679766
0.16743982
0.16809081
0.16875075
0.16941978
0.17009807
0.17078574
0.17148297
0.17218990
0.17290671
0.17363356
0.17437063
0.17511809
0.17587612
0.17664493
0.17742470
0.17821564
0.17901795
0.17983186
0.18065759
0.18149538
0.18234548
0.18320814
0.18408365
0.18497229
0.18587435
0.18679015
0.18772001
0.18866427
0.18962328
0.19059740
0.19158701
0.19259249
0.19361423
0.19465264
0.19570816
0.19678121
0.19787224
0.19898172
0.20011015
0.20125801
0.20242585
0.20361419
0.20482362
0.20605471
0.20730810
0.20858441
0.20988432
0.21120851
0.21255773
0.21393272
0.21533427
0.21676321
0.21822040
0.21970675
0.22122320
0.22277075
0.22435044
0.22596336
0.22761064
0.22929350
0.23101318
0.23277099
0.23456832
0.23640662
0.23828739
0.24021225
0.24218288
0.24420105
0.24626864
0.24838764
0.25056014
0.25278838
0.25507471
0.25742164
0.25983181
0.26230804
0.26485333
0.26747086
0.27016400
0.27293635
0.27579175
0.27873430
0.28176838
0.28489868
0.28813023
0.29146845
0.29491917
0.29848867
0.30218375
0.30601178
0.30998075
0.31409934
0.31837701
0.32282409
0.32745187
0.33227271
0.33730023
0.34254940
0.34803675
0.35378059
0.35980128
0.36612146
0.37276647
0.37976474
0.38714827
0.39495324
0.40322072
0.41199750
0.42133714
0.43130123
0.44196087
0.45339861
0.46571066
0.47900982
0.49342888
0.50912487
0.52628420
0.54512851
0.56592092
0.58897160
0.61464079
0.64333379
0.67546574
0.71127698
0.74990916
0.78475379
0.78129646
0.62326578
0.42647708
0.27532895
0.17396847
0.10911668
0.06835211
0.04287847
0.02696374
0.01699003
0.01070184
0.00669601
0.00409459
0.00233917
0.00106953
0.00009692
0.00019270
0.00028994
0.00038826
0.00048802
0.00058957
0.00069328
0.00079951
0.00090864
0.00102103
0.00113705
0.00125709
0.00138151
0.00151072
0.00164509
0.00178501
0.00193088
0.00208311
0.00224209
0.00240824
0.00258198
0.00276371
0.00295386
0.00315287
0.00336116
0.00357917
0.00380735
0.00404613
0.00429597
0.00455731
0.00483062
0.00511635
0.00541497
0.00572693
0.00605270
0.00639275
0.00674753
0.00711753
0.00750319
0.00790500
0.00832340
0.00875886
0.00921183
0.00968277
0.01017213
0.01068034
0.01120785
0.01175508
0.01232246
0.01291039
0.01351928
0.01414952
0.01480151
0.01547559
0.01617214
0.01689149
0.01763398
0.01839993
0.01918962
0.02000334
0.02084135
0.02170391
0.02259124
0.02350355
0.02444102
0.02540383
0.02639212
0.02740603
0.02844564
0.02951104
0.03060230
0.03171944
0.03286248
0.03403141
0.03522618
0.03644674
0.03769300
0.03896486
0.04026217
0.04158478
0.04293250
0.04430513
0.04570243
0.04712413
0.04856997
0.05003961
0.05153274
0.05304899
0.05458797
0.05614927
0.05773246
0.05933706
0.06096259
0.06260853
0.06427434
0.06595943
0.06766322
0.06938506
0.07112429
0.07288021
0.07465211
0.07643920
0.07824070
0.08005576
0.08188351
0.08372301
0.08557332
0.08743340
0.08930221
0.09117861
0.09306145
0.09494950
0.09684145
0.09873597
0.10063162
0.10252693
0.10442033
0.10631020
0.10819483
0.11007245
0.11194119
0.11379916
0.11564434
0.11747468
0.11928806
0.12108231
0.12285521
0.12460448
0.12632785
0.12802300
0.12968765
0.13131950
0.13291631
0.13447588
0.13599609
0.13747493
0.13891050
0.14030103
0.14164495
0.14294083
0.14418749
0.14538395
0.14652948
0.14762359
0.14866607
0.14965697
0.15059660
0.15148554
0.15232466
0.15311503
0.15385799
0.15455509
0.15520806
0.15581883
0.15638945
0.15692210
0.15741905
0.15788266
0.15831529
0.15871935
0.15909722
0.15945127
0.15978378
0.16009702
0.16039313
0.16067419
0.16094216
0.16119891
0.16144617
0.16168559
0.16191869
0.16214685
0.16237139
0.16259347
0.16281419
0.16303451
0.16325533
0.16347743
0.16370153
0.16392826
0.16415819
0.16439181
0.16462954
0.16487178
0.16511884
0.16537100
0.16562849
0.16589152
0.16616024
0.16643479
0.16671527
0.16700177
0.16729435
0.16759304
0.16789788
0.16820888
0.16852605
0.16884938
0.16917887
0.16951449
0.16985624
0.17020408
0.17055801
0.17091800
0.17128403
0.17165609
0.17203418
0.17241828
0.17280839
0.17320453
0.17360670
0.17401492
0.17442922
0.17484962
0.17527617
0.17570890
0.17614785
0.17659309
0.17704466
0.17750263
0.17796704
0.17843797
0.17891547
0.17939962
0.17989046
0.18038807
0.18089251
0.18140384
0.18192213
0.18244745
0.18297986
0.18351942
0.18406622
0.18462032
0.18518181
0.18575077
0.18632728
0.18691144
0.18750336
0.18810312
0.18871085
0.18932666
0.18995066
0.19058298
0.19122375
0.19187310
0.19253115
0.19319806
0.19387394
0.19455895
0.19525322
0.19595690
0.19667013
0.19739305
0.19812582
0.19886858
0.19962148
0.20038469
0.20115836
0.20194264
0.20273772
0.20354376
0.20436093
0.20518943
0.20602942
0.20688111
0.20774470
0.20862039
0.20950838
0.21040889
0.21132214
0.21224836
0.21318778
0.21414066
0.21510723
0.21608777
0.21708255
0.21809187
0.21911602
0.22015533
0.22121012
0.22228076
0.22336760
0.22447102
0.22559143
0.22672923
0.22788485
0.22905872
0.23025129
0.23146303
0.23269441
0.23394593
0.23521809
0.23651142
0.23782646
0.23916378
0.24052396
0.24190761
0.24331537
0.24474789
0.24620587
0.24769002
0.24920108
0.25073983
0.25230707
0.25390364
0.25553043
0.25718834
0.25887834
0.26060141
0.26235861
0.26415103
0.26597982
0.26784619
0.26975139
0.27169674
0.27368364
0.27571352
0.27778790
0.27990837
0.28207660
0.28429432
0.28656338
0.28888570
0.29126333
0.29369842
0.29619322
0.29875016
0.30137177
0.30406076
0.30681997
0.30965243
0.31256135
0.31555015
0.31862242
0.32178201
0.32503299
0.32837970
0.33182676
0.33537911
0.33904202
0.34282113
0.34672253
0.35075270
0.35491868
0.35922802
0.36368891
0.36831018
0.37310144
0.37807310
0.38323649
0.38860398
0.39418906
0.40000650
0.40607251
0.41240488
0.41902325
0.42594930
0.43320704
0.44082317
0.44882743
0.45725306
0.46613735
0.47552224
0.48545505
0.49598933
0.50718589
0.51911394
0.53185246
0.54549183
0.56013562
0.57590264
0.59292920
0.61137123
0.63140610
0.65323294
0.67706972
0.70314301
0.73166001
0.76271061
0.79582853
0.82782153
0.84183462
0.76782093
0.57638771
0.39408884
0.25933815
0.16778445
0.10769048
0.06887522
0.04399739
0.02810147
0.01794276
0.01142844
0.00721670
0.00444544
0.00255337
0.00117139
0.00011282
0.00022431
0.00033751
0.00045196
0.00056808
0.00068629
0.00080701
0.00093068
0.00105770
0.00118853
0.00132359
0.00146332
0.00160816
0.00175856
0.00191497
0.00207785
0.00224765
0.00242485
0.00260992
0.00280333
0.00300556
0.00321710
0.00343845
0.00367010
0.00391256
0.00416634
0.00443194
0.00470990
0.00500072
0.00530494
0.00562308
0.00595568
0.00630328
0.00666642
0.00704563
0.00744145
0.00785443
0.00828512
0.00873405
0.00920176
0.00968879
0.01019568
0.01072295
0.01127114
0.01184077
0.01243234
0.01304638
0.01368337
0.01434380
0.01502817
0.01573693
0.01647055
0.01722947
0.01801412
0.01882491
0.01966226
0.02052653
0.02141810
0.02233731
0.02328449
0.02425995
0.02526398
0.02629685
0.02735879
0.02845002
0.02957075
0.03072113
0.03190133
0.03311146
0.03435161
0.03562185
0.03692223
0.03825275
0.03961341
0.04100416
0.04242493
0.04387562
0.04535611
0.04686624
0.04840582
0.04997465
0.05157247
0.05319903
0.05485401
0.05653709
0.05824791
0.05998609
0.06175120
0.06354279
0.06536040
0.06720352
0.06907160
0.07096409
0.07288038
0.07481984
0.07678182
0.07876561
0.08077049
0.08279569
0.08484040
0.08690380
0.08898499
0.09108306
0.09319703
0.09532590
0.09746860
0.09962402
0.10179099
0.10396828
0.10615461
0.10834862
0.11054891
0.11275397
0.11496225
0.11717211
0.11938183
0.12158959
0.12379352
0.12599164
0.12818188
0.13036210
0.13253005
0.13468343
0.13681982
0.13893675
0.14103167
0.14310198
0.14514502
0.14715811
0.14913852
0.15108355
0.15299050
0.15485669
0.15667954
0.15845651
0.16018521
0.16186336
0.16348886
0.16505980
0.16657449
0.16803148
0.16942958
0.17076790
0.17204584
0.17326311
0.17441975
0.17551613
0.17655290
0.17753107
0.17845191
0.17931701
0.18012818
0.18088750
0.18159722
0.18225980
0.18287781
0.18345396
0.18399101
0.18449180
0.18495914
0.18539587
0.18580476
0.18618854
0.18654984
0.18689121
0.18721507
0.18752374
0.18781938
0.18810404
0.18837963
0.18864792
0.18891054
0.18916899
0.18942464
0.18967875
0.18993244
0.19018675
0.19044259
0.19070078
0.19096206
0.19122707
0.19149638
0.19177050
0.19204985
0.19233481
0.19262571
0.19292280
0.19322631
0.19353644
0.19385333
0.19417711
0.19450786
0.19484566
0.19519056
0.19554257
0.19590173
0.19626802
0.19664146
0.19702201
0.19740967
0.19780440
0.19820619
0.19861500
0.19903081
0.19945360
0.19988334
0.20032003
0.20076365
0.20121419
0.20167167
0.20213610
0.20260749
0.20308587
0.20357128
0.20406375
0.20456333
0.20507009
0.20558408
0.20610536
0.20663400
0.20717008
0.20771366
0.20826483
0.20882365
0.20939021
0.20996457
0.21054682
0.21113703
0.21173526
0.21234160
0.21295613
0.21357892
0.21421004
0.21484959
0.21549766
0.21615433
0.21681970
0.21749389
0.21817700
0.21886915
0.21957047
0.22028108
0.22100113
0.22173075
0.22247009
0.22321930
0.22397854
0.22474796
0.22552772
0.22631798
0.22711891
0.22793067
0.22875342
0.22958734
0.23043259
0.23128935
0.23215779
0.23303809
0.23393042
0.23483498
0.23575195
0.23668153
0.23762391
0.23857931
0.23954793
0.24052999
0.24152572
0.24253534
0.24355909
0.24459721
0.24564995
0.24671757
0.24780033
0.24889850
0.25001236
0.25114223
0.25228839
0.25345119
0.25463097
0.25582807
0.25704290
0.25827583
0.25952728
0.26079770
0.26208752
0.26339722
0.26472728
0.26607818
0.26745045
0.26884460
0.27026118
0.27170073
0.27316383
0.27465107
0.27616305
0.27770042
0.27926383
0.28085397
0.28247154
0.28411729
0.28579199
0.28749644
0.28923148
0.29099798
0.29279684
0.29462900
0.29649544
0.29839718
0.30033529
0.30231088
0.30432513
0.30637926
0.30847454
0.31061233
0.31279403
0.31502111
0.31729512
0.31961767
0.32199044
0.32441520