# vtk DataFile Version 3.0
Concentration output
ASCII
DATASET STRUCTURED_POINTS
DIMENSIONS 398 98 1
ORIGIN 0 0 0
SPACING 0.03 0.03 1.0
POINT_DATA 39004
SCALARS concentration float 1
LOOKUP_TABLE default
0.00002668
0.00005300
0.00007963
0.00010640
0.00013336
0.00016057
0.00018807
0.00021590
0.00024413
0.00027279
0.00030193
0.00033161
0.00036187
0.00039276
0.00042433
0.00045662
0.00048969
0.00052357
0.00055833
0.00059400
0.00063064
0.00066829
0.00070699
0.00074681
0.00078777
0.00082993
0.00087334
0.00091804
0.00096408
0.00101150
0.00106034
0.00111066
0.00116249
0.00121589
0.00127088
0.00132753
0.00138586
0.00144592
0.00150775
0.00157140
0.00163690
0.00170430
0.00177362
0.00184491
0.00191822
0.00199356
0.00207099
0.00215052
0.00223221
0.00231608
0.00240217
0.00249050
0.00258110
0.00267402
0.00276926
0.00286687
0.00296687
0.00306928
0.00317413
0.00328144
0.00339123
0.00350353
0.00361835
0.00373572
0.00385564
0.00397814
0.00410323
0.00423092
0.00436123
0.00449418
0.00462975
0.00476798
0.00490886
0.00505241
0.00519862
0.00534750
0.00549905
0.00565328
0.00581018
0.00596976
0.00613200
0.00629691
0.00646448
0.00663471
0.00680758
0.00698308
0.00716121
0.00734195
0.00752529
0.00771121
0.00789969
0.00809072
0.00828426
0.00848031
0.00867882
0.00887978
0.00908316
0.00928891
0.00949701
0.00970741
0.00992007
0.01013496
0.01035202
0.01057119
0.01079243
0.01101567
0.01124085
0.01146790
0.01169674
0.01192729
0.01215948
0.01239321
0.01262837
0.01286488
0.01310262
0.01334147
0.01358130
0.01382200
0.01406341
0.01430540
0.01454780
0.01479046
0.01503320
0.01527584
0.01551821
0.01576010
0.01600132
0.01624165
0.01648088
0.01671879
0.01695516
0.01718975
0.01742232
0.01765265
0.01788048
0.01810559
0.01832772
0.01854665
0.01876214
0.01897395
0.01918188
0.01938569
0.01958520
0.01978020
0.01997051
0.02015597
0.02033642
0.02051174
0.02068179
0.02084649
0.02100576
0.02115953
0.02130777
0.02145046
0.02158759
0.02171920
0.02184533
0.02196603
0.02208138
0.02219148
0.02229643
0.02239638
0.02249144
0.02258178
0.02266755
0.02274892
0.02282607
0.02289918
0.02296843
0.02303401
0.02309612
0.02315492
0.02321063
0.02326341
0.02331346
0.02336095
0.02340606
0.02344894
0.02348977
0.02352870
0.02356588
0.02360145
0.02363555
0.02366830
0.02369984
0.02373026
0.02375969
0.02378822
0.02381594
0.02384295
0.02386932
0.02389514
0.02392047
0.02394537
0.02396992
0.02399416
0.02401814
0.02404192
0.02406553
0.02408902
0.02411242
0.02413576
0.02415908
0.02418240
0.02420574
0.02422913
0.02425259
0.02427613
0.02429978
0.02432355
0.02434745
0.02437149
0.02439569
0.02442005
0.02444458
0.02446928
0.02449418
0.02451926
0.02454453
0.02457001
0.02459569
0.02462157
0.02464766
0.02467396
0.02470047
0.02472720
0.02475414
0.02478130
0.02480868
0.02483628
0.02486410
0.02489215
0.02492042
0.02494893
0.02497767
0.02500664
0.02503585
0.02506531
0.02509500
0.02512495
0.02515514
0.02518559
0.02521630
0.02524727
0.02527850
0.02530999
0.02534176
0.02537379
0.02540610
0.02543869
0.02547156
0.02550471
0.02553815
0.02557187
0.02560589
0.02564020
0.02567482
0.02570973
0.02574495
0.02578049
0.02581634
0.02585251
0.02588901
0.02592585
0.02596302
0.02600054
0.02603841
0.02607664
0.02611524
0.02615421
0.02619356
0.02623329
0.02627341
0.02631394
0.02635486
0.02639620
0.02643796
0.02648014
0.02652274
0.02656578
0.02660927
0.02665319
0.02669757
0.02674241
0.02678771
0.02683348
0.02687973
0.02692646
0.02697368
0.02702140
0.02706962
0.02711836
0.02716762
0.02721741
0.02726774
0.02731862
0.02737006
0.02742207
0.02747465
0.02752782
0.02758158
0.02763596
0.02769094
0.02774655
0.02780279
0.02785966
0.02791718
0.02797535
0.02803418
0.02809367
0.02815382
0.02821464
0.02827612
0.02833828
0.02840111
0.02846460
0.02852876
0.02859357
0.02865903
0.02872514
0.02879187
0.02885921
0.02892714
0.02899564
0.02906469
0.02913424
0.02920426
0.02927470
0.02934552
0.02941664
0.02948799
0.02955950
0.02963106
0.02970255
0.02977387
0.02984484
0.02991532
0.02998511
0.03005400
0.03012175
0.03018808
0.03025269
0.03031524
0.03037534
0.03043258
0.03048649
0.03053653
0.03058214
0.03062268
0.03065746
0.03068570
0.03070658
0.03071919
0.03072254
0.03071557
0.03069712
0.03066597
0.03062079
0.03056016
0.03048260
0.03038653
0.03027028
0.03013211
0.02997023
0.02978276
0.02956780
0.02932339
0.02904758
0.02873838
0.02839386
0.02801209
0.02759123
0.02712950
0.02662525
0.02607696
0.02548328
0.02484303
0.02415526
0.02341923
0.02263447
0.02180080
0.02091829
0.01998734
0.01900866
0.01798326
0.01691248
0.01579798
0.01464172
0.01344599
0.01221333
0.01094659
0.00964886
0.00832347
0.00697397
0.00560408
0.00421768
0.00281879
0.00142249
0.00005334
0.00010596
0.00015918
0.00021269
0.00026659
0.00032097
0.00037594
0.00043158
0.00048800
0.00054530
0.00060356
0.00066289
0.00072337
0.00078512
0.00084822
0.00091277
0.00097887
0.00104661
0.00111609
0.00118740
0.00126063
0.00133589
0.00141327
0.00149285
0.00157474
0.00165902
0.00174580
0.00183515
0.00192718
0.00202196
0.00211961
0.00222019
0.00232380
0.00243054
0.00254047
0.00265370
0.00277030
0.00289037
0.00301398
0.00314121
0.00327214
0.00340686
0.00354544
0.00368795
0.00383448
0.00398510
0.00413987
0.00429886
0.00446216
0.00462981
0.00480189
0.00497847
0.00515959
0.00534532
0.00553572
0.00573084
0.00593073
0.00613545
0.00634504
0.00655955
0.00677903
0.00700351
0.00723304
0.00746765
0.00770738
0.00795225
0.00820231
0.00845757
0.00871807
0.00898382
0.00925484
0.00953116
0.00981279
0.01009973
0.01039201
0.01068963
0.01099259
0.01130089
0.01161455
0.01193354
0.01225788
0.01258755
0.01292253
0.01326282
0.01360840
0.01395925
0.01431535
0.01467667
0.01504318
0.01541486
0.01579166
0.01617354
0.01656047
0.01695240
0.01734926
0.01775102
0.01815761
0.01856895
0.01898499
0.01940564
0.01983082
0.02026044
0.02069441
0.02113261
0.02157495
0.02202129
0.02247152
0.02292549
0.02338305
0.02384406
0.02430832
0.02477568
0.02524593
0.02571886
0.02619426
0.02667190
0.02715153
0.02763288
0.02811568
0.02859963
0.02908443
0.02956975
0.03005526
0.03054059
0.03102537
0.03150921
0.03199172
0.03247248
0.03295105
0.03342699
0.03389985
0.03436917
0.03483448
0.03529529
0.03575114
0.03620154
0.03664600
0.03708406
0.03751523
0.03793908
0.03835514
0.03876298
0.03916221
0.03955242
0.03993325
0.04030436
0.04066546
0.04101628
0.04135656
0.04168613
0.04200481
0.04231249
0.04260909
0.04289457
0.04316894
0.04343224
0.04368455
0.04392599
0.04415673
0.04437694
0.04458686
0.04478673
0.04497684
0.04515748
0.04532898
0.04549167
0.04564591
0.04579206
0.04593049
0.04606157
0.04618569
0.04630322
0.04641453
0.04652001
0.04662001
0.04671490
0.04680501
0.04689069
0.04697225
0.04705002
0.04712429
0.04719534
0.04726346
0.04732888
0.04739187
0.04745264
0.04751142
0.04756840
0.04762378
0.04767772
0.04773040
0.04778197
0.04783256
0.04788232
0.04793135
0.04797977
0.04802768
0.04807518
0.04812235
0.04816927
0.04821601
0.04826264
0.04830921
0.04835579
0.04840242
0.04844915
0.04849601
0.04854304
0.04859028
0.04863776
0.04868550
0.04873352
0.04878185
0.04883051
0.04887951
0.04892886
0.04897859
0.04902869
0.04907918
0.04913006
0.04918135
0.04923305
0.04928517
0.04933770
0.04939066
0.04944404
0.04949785
0.04955210
0.04960679
0.04966191
0.04971749
0.04977351
0.04982998
0.04988691
0.04994431
0.05000218
0.05006052
0.05011934
0.05017865
0.05023845
0.05029875
0.05035956
0.05042088
0.05048272
0.05054508
0.05060798
0.05067141
0.05073538
0.05079990
0.05086497
0.05093061
0.05099680
0.05106357
0.05113091
0.05119884
0.05126735
0.05133647
0.05140618
0.05147651
0.05154746
0.05161904
0.05169127
0.05176414
0.05183769
0.05191190
0.05198681
0.05206242
0.05213874
0.05221579
0.05229359
0.05237213
0.05245145
0.05253155
0.05261244
0.05269414
0.05277666
0.05286001
0.05294420
0.05302925
0.05311516
0.05320195
0.05328964
0.05337822
0.05346771
0.05355814
0.05364949
0.05374180
0.05383508
0.05392933
0.05402457
0.05412082
0.05421810
0.05431642
0.05441579
0.05451624
0.05461779
0.05472045
0.05482424
0.05492918
0.05503529
0.05514259
0.05525109
0.05536082
0.05547179
0.05558402
0.05569751
0.05581230
0.05592838
0.05604577
0.05616447
0.05628451
0.05640587
0.05652857
0.05665260
0.05677797
0.05690466
0.05703268
0.05716201
0.05729263
0.05742453
0.05755768
0.05769205
0.05782760
0.05796429
0.05810206
0.05824084
0.05838055
0.05852111
0.05866241
0.05880432
0.05894669
0.05908937
0.05923215
0.05937481
0.05951711
0.05965874
0.05979937
0.05993864
0.06007612
0.06021131
0.06034369
0.06047264
0.06059749
0.06071747
0.06083174
0.06093936
0.06103929
0.06113038
0.06121136
0.06128085
0.06133732
0.06137910
0.06140439
0.06141121
0.06139745
0.06136079
0.06129878
0.06120878
0.06108796
0.06093333
0.06074175
0.06050988
0.06023425
0.05991126
0.05953717
0.05910815
0.05862030
0.05806969
0.05745237
0.05676443
0.05600203
0.05516146
0.05423918
0.05323186
0.05213647
0.05095027
0.04967092
0.04829648
0.04682550
0.04525704
0.04359069
0.04182662
0.03996562
0.03800910
0.03595910
0.03381829
0.03158999
0.02927814
0.02688728
0.02442254
0.02188960
0.01929466
0.01664437
0.01394582
0.01120648
0.00843412
0.00563675
0.00284457
0.00007994
0.00015880
0.00023856
0.00031876
0.00039955
0.00048105
0.00056343
0.00064683
0.00073139
0.00081726
0.00090458
0.00099349
0.00108415
0.00117669
0.00127126
0.00136801
0.00146707
0.00156860
0.00167272
0.00177960
0.00188936
0.00200215
0.00211812
0.00223739
0.00236012
0.00248644
0.00261649
0.00275041
0.00288833
0.00303039
0.00317673
0.00332748
0.00348277
0.00364273
0.00380750
0.00397720
0.00415196
0.00433190
0.00451716
0.00470784
0.00490408
0.00510598
0.00531368
0.00552727
0.00574688
0.00597261
0.00620457
0.00644287
0.00668760
0.00693888
0.00719678
0.00746142
0.00773287
0.00801124
0.00829660
0.00858903
0.00888862
0.00919544
0.00950957
0.00983107
0.01016001
0.01049646
0.01084046
0.01119209
0.01155138
0.01191839
0.01229317
0.01267574
0.01306617
0.01346447
0.01387067
0.01428481
0.01470691
0.01513698
0.01557504
0.01602111
0.01647519
0.01693728
0.01740738
0.01788550
0.01837162
0.01886573
0.01936782
0.01987786
0.02039584
0.02092171
0.02145546
0.02199704
0.02254640
0.02310350
0.02366829
0.02424072
0.02482070
0.02540818
0.02600308
0.02660531
0.02721478
0.02783141
0.02845507
0.02908566
0.02972304
0.03036710
0.03101768
0.03167464
0.03233780
0.03300698
0.03368200
0.03436264
0.03504869
0.03573992
0.03643606
0.03713685
0.03784200
0.03855120
0.03926413
0.03998044
0.04069975
0.04142168
0.04214581
0.04287170
0.04359889
0.04432690
0.04505521
0.04578329
0.04651059
0.04723652
0.04796047
0.04868183
0.04939994
0.05011415
0.05082377
0.05152811
0.05222645
0.05291809
0.05360230
0.05427835
0.05494553
0.05560312
0.05625040
0.05688669
0.05751130
0.05812361
0.05872297
0.05930881
0.05988057
0.06043774
0.06097988
0.06150655
0.06201742
0.06251217
0.06299057
0.06345243
0.06389764
0.06432613
0.06473792
0.06513306
0.06551168
0.06587396
0.06622014
0.06655051
0.06686539
0.06716518
0.06745028
0.06772116
0.06797830
0.06822220
0.06845341
0.06867245
0.06887990
0.06907633
0.06926229
0.06943836
0.06960511
0.06976310
0.06991287
0.07005495
0.07018989
0.07031817
0.07044029
0.07055671
0.07066789
0.07077426
0.07087622
0.07097415
0.07106843
0.07115940
0.07124737
0.07133266
0.07141555
0.07149630
0.07157515
0.07165234
0.07172807
0.07180255
0.07187595
0.07194843
0.07202016
0.07209126
0.07216188
0.07223212
0.07230209
0.07237189
0.07244162
0.07251135
0.07258115
0.07265110
0.07272126
0.07279167
0.07286238
0.07293345
0.07300492
0.07307681
0.07314915
0.07322199
0.07329533
0.07336921
0.07344364
0.07351864
0.07359422
0.07367039
0.07374716
0.07382455
0.07390256
0.07398119
0.07406046
0.07414037
0.07422091
0.07430211
0.07438396
0.07446647
0.07454964
0.07463349
0.07471801
0.07480322
0.07488911
0.07497571
0.07506301
0.07515104
0.07523979
0.07532927
0.07541950
0.07551048
0.07560223
0.07569476
0.07578807
0.07588217
0.07597707
0.07607278
0.07616931
0.07626666
0.07636486
0.07646389
0.07656378
0.07666452
0.07676614
0.07686864
0.07697203
0.07707632
0.07718152
0.07728766
0.07739473
0.07750276
0.07761177
0.07772176
0.07783277
0.07794480
0.07805788
0.07817202
0.07828725
0.07840358
0.07852104
0.07863965
0.07875942
0.07888038
0.07900254
0.07912592
0.07925054
0.07937643
0.07950359
0.07963204
0.07976181
0.07989290
0.08002534
0.08015914
0.08029433
0.08043092
0.08056892
0.08070837
0.08084927
0.08099166
0.08113555
0.08128097
0.08142794
0.08157649
0.08172665
0.08187843
0.08203188
0.08218702
0.08234387
0.08250247
0.08266284
0.08282501
0.08298900
0.08315485
0.08332257
0.08349219
0.08366372
0.08383720
0.08401263
0.08419002
0.08436940
0.08455076
0.08473411
0.08491946
0.08510680
0.08529613
0.08548743
0.08568068
0.08587587
0.08607297
0.08627193
0.08647271
0.08667525
0.08687949
0.08708534
0.08729271
0.08750147
0.08771149
0.08792261
0.08813465
0.08834738
0.08856057
0.08877391
0.08898709
0.08919971
0.08941135
0.08962152
0.08982965
0.09003510
0.09023717
0.09043503
0.09062780
0.09081445
0.09099384
0.09116473
0.09132569
0.09147519
0.09161150
0.09173273
0.09183681
0.09192146
0.09198420
0.09202231
0.09203285
0.09201264
0.09195824
0.09186596
0.09173185
0.09155168
0.09132098
0.09103501
0.09068878
0.09027710
0.08979454
0.08923549
0.08859421
0.08786484
0.08704146
0.08611812
0.08508895
0.08394818
0.08269021
0.08130971
0.07980167
0.07816151
0.07638511
0.07446892
0.07241004
0.07020626
0.06785615
0.06535909
0.06271534
0.05992608
0.05699340
0.05392037
0.05071101
0.04737029
0.04390412
0.04031935
0.03662366
0.03282559
0.02893443
0.02496019
0.02091351
0.01680560
0.01264811
0.00845310
0.00426584
0.00010647
0.00021148
0.00031771
0.00042452
0.00053210
0.00064065
0.00075036
0.00086142
0.00097404
0.00108839
0.00120468
0.00132309
0.00144383
0.00156707
0.00169302
0.00182186
0.00195379
0.00208899
0.00222767
0.00237000
0.00251618
0.00266639
0.00282083
0.00297967
0.00314312
0.00331135
0.00348454
0.00366289
0.00384657
0.00403576
0.00423065
0.00443141
0.00463822
0.00485125
0.00507068
0.00529668
0.00552942
0.00576906
0.00601578
0.00626973
0.00653107
0.00679996
0.00707656
0.00736102
0.00765348
0.00795411
0.00826302
0.00858038
0.00890631
0.00924095
0.00958442
0.00993685
0.01029837
0.01066909
0.01104912
0.01143858
0.01183756
0.01224618
0.01266453
0.01309270
0.01353078
0.01397885
0.01443699
0.01490528
0.01538379
0.01587257
0.01637169
0.01688121
0.01740118
0.01793164
0.01847263
0.01902418
0.01958634
0.02015912
0.02074254
0.02133663
0.02194139
0.02255682
0.02318294
0.02381972
0.02446717
0.02512527
0.02579399
0.02647331
0.02716321
0.02786363
0.02857454
0.02929589
0.03002762
0.03076966
0.03152196
0.03228442
0.03305697
0.03383952
0.03463196
0.03543418
0.03624607
0.03706749
0.03789831
0.03873837
0.03958751
0.04044555
0.04131231
0.04218758
0.04307114
0.04396276
0.04486218
0.04576913
0.04668332
0.04760443
0.04853213
0.04946607
0.05040586
0.05135109
0.05230133
0.05325612
0.05421497
0.05517736
0.05614273
0.05711051
0.05808008
0.05905080
0.06002198
0.06099293
0.06196288
0.06293108
0.06389670
0.06485894
0.06581691
0.06676973
0.06771650
0.06865628
0.06958813
0.07051109
0.07142419
0.07232646
0.07321693
0.07409464
0.07495865
0.07580801
0.07664183
0.07745923
0.07825937
0.07904147
0.07980478
0.08054862
0.08127236
0.08197546
0.08265743
0.08331787
0.08395644
0.08457289
0.08516708
0.08573891
0.08628839
0.08681561
0.08732073
0.08780399
0.08826571
0.08870628
0.08912614
0.08952581
0.08990585
0.09026686
0.09060950
0.09093446
0.09124244
0.09153417
0.09181042
0.09207194
0.09231949
0.09255384
0.09277575
0.09298596
0.09318521
0.09337422
0.09355369
0.09372430
0.09388669
0.09404150
0.09418933
0.09433074
0.09446629
0.09459648
0.09472182
0.09484274
0.09495969
0.09507307
0.09518326
0.09529060
0.09539543
0.09549805
0.09559874
0.09569776
0.09579534
0.09589172
0.09598708
0.09608162
0.09617552
0.09626891
0.09636195
0.09645477
0.09654748
0.09664020
0.09673301
0.09682602
0.09691930
0.09701291
0.09710694
0.09720143
0.09729644
0.09739202
0.09748821
0.09758504
0.09768255
0.09778077
0.09787973
0.09797943
0.09807991
0.09818118
0.09828325
0.09838613
0.09848983
0.09859437
0.09869975
0.09880598
0.09891306
0.09902100
0.09912980
0.09923948
0.09935004
0.09946148
0.09957382
0.09968707
0.09980123
0.09991632
0.10003234
0.10014931
0.10026725
0.10038615
0.10050604
0.10062694
0.10074884
0.10087177
0.10099574
0.10112076
0.10124684
0.10137399
0.10150223
0.10163157
0.10176201
0.10189357
0.10202627
0.10216010
0.10229508
0.10243124
0.10256857
0.10270710
0.10284683
0.10298780
0.10313001
0.10327349
0.10341825
0.10356433
0.10371173
0.10386050
0.10401064
0.10416220
0.10431519
0.10446964
0.10462558
0.10478304
0.10494204
0.10510260
0.10526476
0.10542854
0.10559396
0.10576105
0.10592984
0.10610033
0.10627257
0.10644656
0.10662234
0.10679993
0.10697935
0.10716062
0.10734377
0.10752884
0.10771583
0.10790479
0.10809574
0.10828871
0.10848374
0.10868086
0.10888010
0.10908150
0.10928510
0.10949093
0.10969902
0.10990943
0.11012218
0.11033731
0.11055486
0.11077486
0.11099734
0.11122233
0.11144986
0.11167996
0.11191264
0.11214793
0.11238585
0.11262639
0.11286958
0.11311540
0.11336387
0.11361496
0.11386867
0.11412498
0.11438384
0.11464523
0.11490910
0.11517537
0.11544398
0.11571483
0.11598781
0.11626280
0.11653964
0.11681815
0.11709812
0.11737930
0.11766141
0.11794412
0.11822704
0.11850975
0.11879173
0.11907242
0.11935117
0.11962723
0.11989977
0.12016783
0.12043036
0.12068614
0.12093385
0.12117197
0.12139884
0.12161260
0.12181118
0.12199233
0.12215353
0.12229203
0.12240481
0.12248857
0.12253971
0.12255433
0.12252821
0.12245676
0.12233510
0.12215795
0.12191971
0.12161440
0.12123573
0.12077705
0.12023142
0.11959159
0.11885011
0.11799927
0.11703125
0.11593813
0.11471196
0.11334487
0.11182911
0.11015721
0.10832199
0.10631675
0.10413532
0.10177218
0.09922256
0.09648254
0.09354917
0.09042049
0.08709567
0.08357504
0.07986015
0.07595380
0.07186008
0.06758435
0.06313325
0.05851470
0.05373779
0.04881282
0.04375119
0.03856530
0.03326852
0.02787505
0.02239985
0.01685849
0.01126706
0.00568591
0.00013288
0.00026395
0.00039654
0.00052984
0.00066412
0.00079960
0.00093653
0.00107515
0.00121570
0.00135843
0.00150357
0.00165136
0.00180205
0.00195587
0.00211307
0.00227387
0.00243854
0.00260729
0.00278036
0.00295801
0.00314045
0.00332793
0.00352069
0.00371895
0.00392294
0.00413291
0.00434908
0.00457167
0.00480092
0.00503706
0.00528030
0.00553087
0.00578899
0.00605488
0.00632875
0.00661082
0.00690130
0.00720040
0.00750833
0.00782529
0.00815147
0.00848708
0.00883230
0.00918734
0.00955237
0.00992758
0.01031314
0.01070924
0.01111604
0.01153370
0.01196239
0.01240227
0.01285349
0.01331619
0.01379052
0.01427661
0.01477459
0.01528460
0.01580675
0.01634116
0.01688794
0.01744720
0.01801902
0.01860351
0.01920075
0.01981082
0.02043380
0.02106976
0.02171876
0.02238086
0.02305610
0.02374453
0.02444620
0.02516114
0.02588936
0.02663089
0.02738575
0.02815394
0.02893547
0.02973032
0.03053848
0.03135995
0.03219469
0.03304266
0.03390384
0.03477817
0.03566561
0.03656608
0.03747952
0.03840586
0.03934501
0.04029687
0.04126133
0.04223829
0.04322763
0.04422919
0.04524285
0.04626843
0.04730578
0.04835469
0.04941497
0.05048640
0.05156875
0.05266176
0.05376517
0.05487868
0.05600199
0.05713474
0.05827659
0.05942714
0.06058598
0.06175268
0.06292674
0.06410768
0.06529495
0.06648798
0.06768616
0.06888885
0.07009535
0.07130495
0.07251688
0.07373034
0.07494448
0.07615842
0.07737123
0.07858194
0.07978954
0.08099301
0.08219125
0.08338316
0.08456759
0.08574339
0.08690936
0.08806431
0.08920701
0.09033624
0.09145079
0.09254944
0.09363099
0.09469428
0.09573815
0.09676151
0.09776330
0.09874251
0.09969820
0.10062952
0.10153566
0.10241594
0.10326972
0.10409650
0.10489585
0.10566747
0.10641113
0.10712675
0.10781430
0.10847391
0.10910578
0.10971021
0.11028761
0.11083845
0.11136330
0.11186281
0.11233769
0.11278870
0.11321667
0.11362245
0.11400696
0.11437110
0.11471584
0.11504213
0.11535092
0.11564319
0.11591989
0.11618195
0.11643031
0.11666586
0.11688949
0.11710204
0.11730434
0.11749717
0.11768128
0.11785739
0.11802619
0.11818831
0.11834437
0.11849495
0.11864057
0.11878175
0.11891896
0.11905262
0.11918317
0.11931096
0.11943635
0.11955966
0.11968120
0.11980123
0.11992001
0.12003777
0.12015472
0.12027105
0.12038695
0.12050256
0.12061804
0.12073353
0.12084914
0.12096498
0.12108116
0.12119776
0.12131487
0.12143255
0.12155089
0.12166992
0.12178971
0.12191031
0.12203175
0.12215407
0.12227730
0.12240146
0.12252659
0.12265270
0.12277981
0.12290793
0.12303708
0.12316726
0.12329849
0.12343077
0.12356411
0.12369851
0.12383399
0.12397056
0.12410821
0.12424696
0.12438682
0.12452781
0.12466992
0.12481318
0.12495759
0.12510318
0.12524996
0.12539795
0.12554715
0.12569759
0.12584929
0.12600225
0.12615651
0.12631206
0.12646893
0.12662714
0.12678669
0.12694761
0.12710990
0.12727357
0.12743865
0.12760515
0.12777308
0.12794245
0.12811329
0.12828560
0.12845942
0.12863476
0.12881163
0.12899008
0.12917011
0.12935177
0.12953507
0.12972005
0.12990674
0.13009516
0.13028537
0.13047737
0.13067122
0.13086695
0.13106458
0.13126415
0.13146570
0.13166925
0.13187484
0.13208249
0.13229224
0.13250412
0.13271816
0.13293438
0.13315281
0.13337348
0.13359643
0.13382168
0.13404926
0.13427921
0.13451155
0.13474633
0.13498357
0.13522332
0.13546561
0.13571049
0.13595800
0.13620818
0.13646107
0.13671673
0.13697520
0.13723652
0.13750074
0.13776790
0.13803806
0.13831124
0.13858750
0.13886688
0.13914939
0.13943509
0.13972399
0.14001612
0.14031151
0.14061015
0.14091207
0.14121727
0.14152573
0.14183746
0.14215243
0.14247062
0.14279198
0.14311647
0.14344403
0.14377457
0.14410801
0.14444423
0.14478309
0.14512444
0.14546807
0.14581378
0.14616130
0.14651033
0.14686051
0.14721143
0.14756263
0.14791357
0.14826363
0.14861210
0.14895818
0.14930096
0.14963938
0.14997230
0.15029837
0.15061613
0.15092390
0.15121984
0.15150186
0.15176768
0.15201473
0.15224021
0.15244099
0.15261367
0.15275450
0.15285938
0.15292384
0.15294304
0.15291170
0.15282415
0.15267427
0.15245553
0.15216090
0.15178297
0.15131385
0.15074524
0.15006847
0.14927448
0.14835391
0.14729713
0.14609431
0.14473551
0.14321076
0.14151015
0.13962395
0.13754272
0.13525747
0.13275972
0.13004169
0.12709642
0.12391789
0.12050114
0.11684242
0.11293926
0.10879058
0.10439676
0.09975973
0.09488299
0.08977164
0.08443241
0.07887362
0.07310516
0.06713845
0.06098639
0.05466324
0.04818456
0.04156707
0.03482857
0.02798777
0.02106417
0.01407790
0.00710442
0.00015916
0.00031616
0.00047496
0.00063463
0.00079546
0.00095774
0.00112175
0.00128779
0.00145614
0.00162709
0.00180094
0.00197796
0.00215845
0.00234269
0.00253098
0.00272359
0.00292082
0.00312295
0.00333026
0.00354303
0.00376156
0.00398612
0.00421700
0.00445447
0.00469881
0.00495030
0.00520922
0.00547584
0.00575043
0.00603327
0.00632462
0.00662474
0.00693391
0.00725239
0.00758043
0.00791829
0.00826622
0.00862448
0.00899331
0.00937295
0.00976365
0.01016563
0.01057914
0.01100439
0.01144162
0.01189104
0.01235286
0.01282730
0.01331456
0.01381483
0.01432832
0.01485520
0.01539566
0.01594988
0.01651803
0.01710026
0.01769675
0.01830764
0.01893307
0.01957319
0.02022813
0.02089801
0.02158294
0.02228305
0.02299844
0.02372920
0.02447542
0.02523719
0.02601458
0.02680767
0.02761650
0.02844115
0.02928165
0.03013804
0.03101035
0.03189862
0.03280285
0.03372307
0.03465926
0.03561142
0.03657954
0.03756361
0.03856358
0.03957942
0.04061110
0.04165854
0.04272170
0.04380049
0.04489484
0.04600465
0.04712983
0.04827027
0.04942584
0.05059640
0.05178181
0.05298192
0.05419654
0.05542549
0.05666857
0.05792555
0.05919621
0.06048027
0.06177747
0.06308751
0.06441007
0.06574480
0.06709133
0.06844926
0.06981818
0.07119760
0.07258706
0.07398602
0.07539391
0.07681015
0.07823408
0.07966504
0.08110229
0.08254506
0.08399254
0.08544387
0.08689813
0.08835437
0.08981157
0.09126867
0.09272457
0.09417810
0.09562806
0.09707321
0.09851224
0.09994382
0.10136657
0.10277910
0.10417998
0.10556774
0.10694093
0.10829807
0.10963767
0.11095828
0.11225843
0.11353671
0.11479173
0.11602213
0.11722665
0.11840405
0.11955319
0.12067302
0.12176256
0.12282095
0.12384745
0.12484142
0.12580234
0.12672982
0.12762360
0.12848355
0.12930967
0.13010207
0.13086102
0.13158686
0.13228009
0.13294129
0.13357115
0.13417045
0.13474005
0.13528089
0.13579395
0.13628030
0.13674101
0.13717721
0.13759005
0.13798069
0.13835030
0.13870003
0.13903105
0.13934449
0.13964147
0.13992309
0.14019040
0.14044442
0.14068616
0.14091654
0.14113649
0.14134687
0.14154848
0.14174212
0.14192851
0.14210835
0.14228227
0.14245088
0.14261475
0.14277440
0.14293032
0.14308297
0.14323276
0.14338007
0.14352526
0.14366867
0.14381058
0.14395128
0.14409101
0.14423001
0.14436849
0.14450663
0.14464462
0.14478260
0.14492074
0.14505915
0.14519796
0.14533727
0.14547718
0.14561778
0.14575914
0.14590135
0.14604445
0.14618852
0.14633358
0.14647970
0.14662690
0.14677522
0.14692470
0.14707534
0.14722717
0.14738021
0.14753448
0.14768998
0.14784673
0.14800473
0.14816399
0.14832452
0.14848634
0.14864943
0.14881383
0.14897952
0.14914654
0.14931487
0.14948456
0.14965559
0.14982800
0.15000180
0.15017701
0.15035364
0.15053172
0.15071127
0.15089230
0.15107485
0.15125892
0.15144454
0.15163172
0.15182049
0.15201087
0.15220286
0.15239649
0.15259177
0.15278872
0.15298736
0.15318769
0.15338975
0.15359355
0.15379910
0.15400643
0.15421557
0.15442653
0.15463935
0.15485405
0.15507067
0.15528924
0.15550979
0.15573237
0.15595700
0.15618373
0.15641260
0.15664366
0.15687693
0.15711246
0.15735029
0.15759046
0.15783301
0.15807798
0.15832540
0.15857531
0.15882775
0.15908276
0.15934036
0.15960060
0.15986350
0.16012910
0.16039744
0.16066855
0.16094248
0.16121925
0.16149891
0.16178150
0.16206706
0.16235565
0.16264730
0.16294206
0.16323999
0.16354113
0.16384555
0.16415329
0.16446442
0.16477897
0.16509702
0.16541861
0.16574380
0.16607263
0.16640515
0.16674140
0.16708142
0.16742525
0.16777291
0.16812444
0.16847984
0.16883913
0.16920231
0.16956938
0.16994033
0.17031513
0.17069375
0.17107615
0.17146227
0.17185202
0.17224532
0.17264207
0.17304211
0.17344529
0.17385142
0.17426028
0.17467160
0.17508506
0.17550032
0.17591695
0.17633448
0.17675235
0.17716992
0.17758646
0.17800114
0.17841300
0.17882096
0.17922380
0.17962013
0.18000839
0.18038681
0.18075343
0.18110605
0.18144220
0.18175917
0.18205391
0.18232308
0.18256298
0.18276956
0.18293835
0.18306447
0.18314261
0.18316698
0.18313131
0.18302882
0.18285221
0.18259366
0.18224478
0.18179669
0.18123994
0.18056458
0.17976020
0.17881592
0.17772047
0.17646227
0.17502947
0.17341009
0.17159209
0.16956348
0.16731252
0.16482777
0.16209833
0.15911394
0.15586515
0.15234351
0.14854170
0.14445370
0.14007492
0.13540233
0.13043459
0.12517214
0.11961727
0.11377416
0.10764896
0.10124973
0.09458651
0.08767119
0.08051752
0.07314102
0.06555884
0.05778971
0.04985374
0.04177233
0.03356797
0.02526411
0.01688495
0.00852102
0.00018528
0.00036804
0.00055291
0.00073878
0.00092601
0.00111491
0.00130584
0.00149913
0.00169511
0.00189412
0.00209649
0.00230256
0.00251267
0.00272715
0.00294634
0.00317056
0.00340016
0.00363545
0.00387678
0.00412448
0.00437887
0.00464029
0.00490905
0.00518549
0.00546993
0.00576270
0.00606411
0.00637448
0.00669414
0.00702339
0.00736255
0.00771194
0.00807184
0.00844259
0.00882446
0.00921777
0.00962280
0.01003986
0.01046921
0.01091116
0.01136597
0.01183393
0.01231530
0.01281035
0.01331934
0.01384251
0.01438013
0.01493243
0.01549966
0.01608204
0.01667980
0.01729316
0.01792232
0.01856751
0.01922890
0.01990671
0.02060110
0.02131225
0.02204035
0.02278554
0.02354798
0.02432781
0.02512518
0.02594022
0.02677304
0.02762376
0.02849249
0.02937932
0.03028434
0.03120764
0.03214928
0.03310932
0.03408783
0.03508485
0.03610041
0.03713456
0.03818730
0.03925865
0.04034862
0.04145719
0.04258436
0.04373010
0.04489437
0.04607714
0.04727836
0.04849796
0.04973587
0.05099202
0.05226630
0.05355862
0.05486885
0.05619689
0.05754257
0.05890576
0.06028627
0.06168394
0.06309857
0.06452993
0.06597779
0.06744191
0.06892202
0.07041781
0.07192898
0.07345518
0.07499604
0.07655117
0.07812014
0.07970250
0.08129775
0.08290537
0.08452480
0.08615542
0.08779660
0.08944763
0.09110779
0.09277629
0.09445228
0.09613489
0.09782316
0.09951610
0.10121265
0.10291170
0.10461207
0.10631254
0.10801180
0.10970852
0.11140129
0.11308865
0.11476908
0.11644104
0.11810290
0.11975303
0.12138974
0.12301134
0.12461609
0.12620226
0.12776811
0.12931191
0.13083193
0.13232651
0.13379398
0.13523277
0.13664134
0.13801825
0.13936213
0.14067172
0.14194587
0.14318356
0.14438387
0.14554606
0.14666949
0.14775371
0.14879839
0.14980337
0.15076863
0.15169432
0.15258073
0.15342828
0.15423755
0.15500922
0.15574411
0.15644314
0.15710732
0.15773777
0.15833566
0.15890222
0.15943875
0.15994658
0.16042705
0.16088154
0.16131142
0.16171807
0.16210285
0.16246710
0.16281213
0.16313922
0.16344963
0.16374456
0.16402517
0.16429256
0.16454780
0.16479190
0.16502583
0.16525048
0.16546671
0.16567534
0.16587710
0.16607271
0.16626282
0.16644805
0.16662896
0.16680608
0.16697989
0.16715084
0.16731934
0.16748578
0.16765049
0.16781380
0.16797599
0.16813734
0.16829808
0.16845844
0.16861861
0.16877879
0.16893913
0.16909979
0.16926090
0.16942260
0.16958498
0.16974816
0.16991223
0.17007726
0.17024333
0.17041051
0.17057885
0.17074840
0.17091922
0.17109133
0.17126477
0.17143957
0.17161576
0.17179334
0.17197234
0.17215278
0.17233466
0.17251798
0.17270277
0.17288903
0.17307677
0.17326598
0.17345669
0.17364890
0.17384263
0.17403788
0.17423467
0.17443302
0.17463295
0.17483447
0.17503761
0.17524239
0.17544883
0.17565696
0.17586679
0.17607837
0.17629171
0.17650683
0.17672375
0.17694251
0.17716312
0.17738560
0.17760996
0.17783624
0.17806445
0.17829460
0.17852672
0.17876082
0.17899692
0.17923506
0.17947524
0.17971749
0.17996185
0.18020834
0.18045700
0.18070786
0.18096095
0.18121632
0.18147400
0.18173405
0.18199651
0.18226142
0.18252883
0.18279879
0.18307135
0.18334655
0.18362444
0.18390507
0.18418848
0.18447472
0.18476383
0.18505586
0.18535085
0.18564884
0.18594986
0.18625397
0.18656119
0.18687157
0.18718516
0.18750199
0.18782210
0.18814554
0.18847236
0.18880260
0.18913632
0.18947356
0.18981438
0.19015884
0.19050700
0.19085891
0.19121464
0.19157425
0.19193781
0.19230538
0.19267702
0.19305278
0.19343274
0.19381693
0.19420543
0.19459826
0.19499548
0.19539711
0.19580319
0.19621375
0.19662878
0.19704831
0.19747232
0.19790081
0.19833374
0.19877107
0.19921277
0.19965875