# vtk DataFile Version 3.0
Concentration output
ASCII
DATASET STRUCTURED_POINTS
DIMENSIONS 398 98 1
ORIGIN 0 0 0
SPACING 0.03 0.03 1.0
POINT_DATA 39004
SCALARS concentration float 1
LOOKUP_TABLE default
0.00002234
0.00004440
0.00006674
0.00008925
0.00011198
0.00013499
0.00015834
0.00018209
0.00020628
0.00023098
0.00025625
0.00028213
0.00030869
0.00033599
0.00036408
0.00039302
0.00042286
0.00045367
0.00048550
0.00051841
0.00055246
0.00058770
0.00062420
0.00066202
0.00070120
0.00074181
0.00078391
0.00082756
0.00087281
0.00091973
0.00096837
0.00101878
0.00107103
0.00112517
0.00118127
0.00123937
0.00129954
0.00136182
0.00142628
0.00149297
0.00156194
0.00163325
0.00170694
0.00178308
0.00186171
0.00194288
0.00202664
0.00211303
0.00220212
0.00229393
0.00238852
0.00248592
0.00258618
0.00268935
0.00279544
0.00290452
0.00301660
0.00313172
0.00324992
0.00337122
0.00349565
0.00362324
0.00375402
0.00388800
0.00402521
0.00416566
0.00430937
0.00445635
0.00460662
0.00476019
0.00491705
0.00507723
0.00524072
0.00540752
0.00557763
0.00575105
0.00592776
0.00610778
0.00629107
0.00647763
0.00666745
0.00686050
0.00705676
0.00725622
0.00745885
0.00766462
0.00787350
0.00808546
0.00830046
0.00851847
0.00873945
0.00896334
0.00919011
0.00941971
0.00965209
0.00988718
0.01012494
0.01036529
0.01060818
0.01085353
0.01110127
0.01135132
0.01160360
0.01185801
0.01211448
0.01237289
0.01263314
0.01289513
0.01315873
0.01342383
0.01369029
0.01395797
0.01422673
0.01449641
0.01476685
0.01503788
0.01530932
0.01558098
0.01585266
0.01612414
0.01639522
0.01666567
0.01693525
0.01720371
0.01747080
0.01773626
0.01799982
0.01826121
0.01852015
0.01877634
0.01902951
0.01927936
0.01952561
0.01976797
0.02000615
0.02023989
0.02046890
0.02069293
0.02091173
0.02112507
0.02133273
0.02153451
0.02173024
0.02191975
0.02210293
0.02227965
0.02244983
0.02261343
0.02277042
0.02292078
0.02306456
0.02320180
0.02333258
0.02345702
0.02357522
0.02368736
0.02379358
0.02389409
0.02398908
0.02407877
0.02416339
0.02424318
0.02431838
0.02438924
0.02445600
0.02451893
0.02457827
0.02463427
0.02468718
0.02473723
0.02478465
0.02482967
0.02487250
0.02491335
0.02495242
0.02498988
0.02502593
0.02506072
0.02509441
0.02512714
0.02515905
0.02519028
0.02522092
0.02525110
0.02528091
0.02531044
0.02533977
0.02536898
0.02539814
0.02542730
0.02545653
0.02548587
0.02551537
0.02554507
0.02557500
0.02560520
0.02563569
0.02566649
0.02569764
0.02572914
0.02576101
0.02579328
0.02582594
0.02585902
0.02589252
0.02592645
0.02596082
0.02599564
0.02603091
0.02606664
0.02610283
0.02613949
0.02617663
0.02621423
0.02625232
0.02629089
0.02632994
0.02636948
0.02640951
0.02645003
0.02649105
0.02653257
0.02657458
0.02661710
0.02666012
0.02670364
0.02674768
0.02679223
0.02683729
0.02688287
0.02692898
0.02697561
0.02702278
0.02707049
0.02711875
0.02716756
0.02721693
0.02726687
0.02731739
0.02736850
0.02742020
0.02747251
0.02752543
0.02757898
0.02763317
0.02768800
0.02774349
0.02779964
0.02785647
0.02791398
0.02797218
0.02803108
0.02809070
0.02815104
0.02821210
0.02827390
0.02833644
0.02839974
0.02846381
0.02852864
0.02859426
0.02866066
0.02872787
0.02879590
0.02886474
0.02893442
0.02900495
0.02907634
0.02914860
0.02922175
0.02929580
0.02937076
0.02944666
0.02952349
0.02960128
0.02968005
0.02975981
0.02984057
0.02992235
0.03000517
0.03008905
0.03017399
0.03026002
0.03034716
0.03043542
0.03052481
0.03061537
0.03070710
0.03080002
0.03089415
0.03098951
0.03108611
0.03118398
0.03128313
0.03138358
0.03148536
0.03158847
0.03169294
0.03179878
0.03190603
0.03201469
0.03212479
0.03223635
0.03234940
0.03246394
0.03258002
0.03269765
0.03281685
0.03293764
0.03306006
0.03318413
0.03330987
0.03343731
0.03356649
0.03369741
0.03383013
0.03396466
0.03410103
0.03423929
0.03437946
0.03452157
0.03466567
0.03481178
0.03495995
0.03511021
0.03526260
0.03541716
0.03557394
0.03573298
0.03589433
0.03605803
0.03622412
0.03639266
0.03656370
0.03673728
0.03691345
0.03709226
0.03727377
0.03745800
0.03764500
0.03783481
0.03802745
0.03822294
0.03842129
0.03862248
0.03882650
0.03903330
0.03924279
0.03945487
0.03966939
0.03988614
0.04010485
0.04032521
0.04054677
0.04076902
0.04099131
0.04121286
0.04143272
0.04164974
0.04186259
0.04206965
0.04226906
0.04245862
0.04263579
0.04279765
0.04294087
0.04306165
0.04315570
0.04321824
0.04324393
0.04322690
0.04316070
0.04303839
0.04285246
0.04259496
0.04225754
0.04183154
0.04130810
0.04067831
0.03993338
0.03906483
0.03806469
0.03692577
0.03564183
0.03420790
0.03262046
0.03087770
0.02897968
0.02692851
0.02472850
0.02238615
0.01991026
0.01731178
0.01460382
0.01180135
0.00892110
0.00598119
0.00302421
0.00004466
0.00008875
0.00013341
0.00017840
0.00022385
0.00026985
0.00031653
0.00036399
0.00041235
0.00046173
0.00051223
0.00056398
0.00061707
0.00067164
0.00072779
0.00078563
0.00084529
0.00090687
0.00097050
0.00103629
0.00110435
0.00117480
0.00124777
0.00132335
0.00140168
0.00148287
0.00156703
0.00165428
0.00174474
0.00183852
0.00193574
0.00203652
0.00214096
0.00224920
0.00236133
0.00247747
0.00259774
0.00272225
0.00285110
0.00298441
0.00312228
0.00326482
0.00341213
0.00356433
0.00372151
0.00388376
0.00405120
0.00422391
0.00440198
0.00458551
0.00477459
0.00496930
0.00516972
0.00537594
0.00558802
0.00580606
0.00603010
0.00626023
0.00649651
0.00673899
0.00698773
0.00724278
0.00750420
0.00777203
0.00804630
0.00832706
0.00861433
0.00890815
0.00920854
0.00951551
0.00982909
0.01014928
0.01047609
0.01080953
0.01114958
0.01149624
0.01184951
0.01220935
0.01257576
0.01294870
0.01332814
0.01371406
0.01410640
0.01450513
0.01491020
0.01532154
0.01573911
0.01616283
0.01659264
0.01702845
0.01747020
0.01791780
0.01837114
0.01883014
0.01929470
0.01976469
0.02024001
0.02072052
0.02120611
0.02169662
0.02219192
0.02269183
0.02319621
0.02370488
0.02421764
0.02473430
0.02525466
0.02577849
0.02630556
0.02683563
0.02736843
0.02790368
0.02844111
0.02898039
0.02952120
0.03006320
0.03060603
0.03114932
0.03169266
0.03223563
0.03277781
0.03331873
0.03385793
0.03439492
0.03492918
0.03546020
0.03598744
0.03651035
0.03702836
0.03754090
0.03804741
0.03854729
0.03903998
0.03952489
0.04000146
0.04046914
0.04092737
0.04137564
0.04181346
0.04224034
0.04265587
0.04305963
0.04345127
0.04383048
0.04419698
0.04455057
0.04489108
0.04521839
0.04553245
0.04583326
0.04612087
0.04639539
0.04665698
0.04690584
0.04714224
0.04736647
0.04757887
0.04777982
0.04796972
0.04814901
0.04831815
0.04847761
0.04862789
0.04876947
0.04890287
0.04902859
0.04914713
0.04925899
0.04936466
0.04946461
0.04955931
0.04964920
0.04973473
0.04981629
0.04989428
0.04996908
0.05004103
0.05011048
0.05017773
0.05024307
0.05030678
0.05036911
0.05043028
0.05049052
0.05055003
0.05060898
0.05066753
0.05072585
0.05078406
0.05084228
0.05090064
0.05095922
0.05101812
0.05107742
0.05113718
0.05119747
0.05125834
0.05131985
0.05138203
0.05144493
0.05150857
0.05157299
0.05163821
0.05170425
0.05177114
0.05183889
0.05190751
0.05197702
0.05204744
0.05211877
0.05219102
0.05226421
0.05233833
0.05241341
0.05248944
0.05256643
0.05264439
0.05272332
0.05280323
0.05288412
0.05296600
0.05304887
0.05313274
0.05321761
0.05330348
0.05339036
0.05347826
0.05356718
0.05365713
0.05374812
0.05384015
0.05393323
0.05402738
0.05412261
0.05421893
0.05431635
0.05441488
0.05451456
0.05461538
0.05471738
0.05482056
0.05492496
0.05503058
0.05513744
0.05524558
0.05535500
0.05546573
0.05557779
0.05569119
0.05580595
0.05592210
0.05603965
0.05615862
0.05627902
0.05640087
0.05652420
0.05664901
0.05677532
0.05690315
0.05703253
0.05716346
0.05729598
0.05743009
0.05756582
0.05770319
0.05784223
0.05798296
0.05812540
0.05826958
0.05841553
0.05856327
0.05871284
0.05886425
0.05901755
0.05917276
0.05932991
0.05948903
0.05965015
0.05981331
0.05997854
0.06014587
0.06031534
0.06048697
0.06066081
0.06083689
0.06101524
0.06119590
0.06137890
0.06156428
0.06175208
0.06194232
0.06213505
0.06233030
0.06252812
0.06272852
0.06293156
0.06313727
0.06334568
0.06355685
0.06377080
0.06398758
0.06420723
0.06442980
0.06465531
0.06488383
0.06511539
0.06535004
0.06558783
0.06582881
0.06607302
0.06632051
0.06657134
0.06682556
0.06708323
0.06734440
0.06760912
0.06787747
0.06814950
0.06842527
0.06870485
0.06898831
0.06927572
0.06956715
0.06986267
0.07016236
0.07046630
0.07077457
0.07108725
0.07140443
0.07172620
0.07205266
0.07238389
0.07271999
0.07306107
0.07340721
0.07375851
0.07411508
0.07447699
0.07484435
0.07521722
0.07559568
0.07597977
0.07636954
0.07676500
0.07716613
0.07757289
0.07798516
0.07840281
0.07882561
0.07925326
0.07968535
0.08012137
0.08056064
0.08100232
0.08144538
0.08188852
0.08233019
0.08276851
0.08320120
0.08362559
0.08403847
0.08443613
0.08481420
0.08516763
0.08549060
0.08577648
0.08601768
0.08620570
0.08633096
0.08638285
0.08634964
0.08621849
0.08597549
0.08560569
0.08509319
0.08442130
0.08357267
0.08252958
0.08127418
0.07978886
0.07805659
0.07606140
0.07378880
0.07122628
0.06836378
0.06519423
0.06171388
0.05792283
0.05382525
0.04942968
0.04474913
0.03980115
0.03460771
0.02919495
0.02359292
0.01783508
0.01195774
0.00604612
0.00006694
0.00013302
0.00019994
0.00026738
0.00033548
0.00040443
0.00047439
0.00054552
0.00061801
0.00069201
0.00076770
0.00084525
0.00092483
0.00100660
0.00109075
0.00117745
0.00126686
0.00135916
0.00145452
0.00155311
0.00165512
0.00176071
0.00187006
0.00198335
0.00210074
0.00222241
0.00234855
0.00247931
0.00261488
0.00275544
0.00290115
0.00305218
0.00320872
0.00337093
0.00353899
0.00371306
0.00389331
0.00407991
0.00427302
0.00447281
0.00467944
0.00489307
0.00511386
0.00534196
0.00557752
0.00582070
0.00607164
0.00633048
0.00659737
0.00687243
0.00715581
0.00744762
0.00774800
0.00805707
0.00837493
0.00870170
0.00903748
0.00938239
0.00973650
0.01009991
0.01047271
0.01085497
0.01124676
0.01164816
0.01205923
0.01248001
0.01291056
0.01335092
0.01380112
0.01426120
0.01473118
0.01521107
0.01570088
0.01620062
0.01671027
0.01722984
0.01775930
0.01829863
0.01884779
0.01940675
0.01997546
0.02055387
0.02114191
0.02173954
0.02234665
0.02296319
0.02358905
0.02422414
0.02486836
0.02552160
0.02618373
0.02685462
0.02753415
0.02822216
0.02891850
0.02962300
0.03033549
0.03105579
0.03178369
0.03251900
0.03326148
0.03401091
0.03476704
0.03552961
0.03629834
0.03707295
0.03785310
0.03863849
0.03942876
0.04022355
0.04102246
0.04182508
0.04263097
0.04343968
0.04425072
0.04506358
0.04587772
0.04669257
0.04750754
0.04832200
0.04913531
0.04994677
0.05075569
0.05156133
0.05236293
0.05315970
0.05395083
0.05473550
0.05551287
0.05628208
0.05704225
0.05779253
0.05853203
0.05925989
0.05997526
0.06067729
0.06136517
0.06203811
0.06269536
0.06333621
0.06396000
0.06456614
0.06515407
0.06572331
0.06627348
0.06680422
0.06731531
0.06780656
0.06827789
0.06872929
0.06916085
0.06957273
0.06996516
0.07033845
0.07069300
0.07102926
0.07134773
0.07164899
0.07193365
0.07220235
0.07245580
0.07269471
0.07291982
0.07313188
0.07333165
0.07351988
0.07369734
0.07386477
0.07402291
0.07417248
0.07431417
0.07444865
0.07457658
0.07469858
0.07481522
0.07492708
0.07503469
0.07513854
0.07523909
0.07533680
0.07543206
0.07552525
0.07561673
0.07570681
0.07579579
0.07588394
0.07597150
0.07605871
0.07614577
0.07623285
0.07632013
0.07640775
0.07649585
0.07658454
0.07667393
0.07676411
0.07685517
0.07694718
0.07704019
0.07713427
0.07722947
0.07732583
0.07742338
0.07752217
0.07762221
0.07772354
0.07782618
0.07793015
0.07803546
0.07814214
0.07825019
0.07835964
0.07847049
0.07858276
0.07869645
0.07881158
0.07892815
0.07904618
0.07916567
0.07928663
0.07940906
0.07953297
0.07965837
0.07978527
0.07991366
0.08004357
0.08017500
0.08030795
0.08044243
0.08057847
0.08071606
0.08085522
0.08099598
0.08113834
0.08128233
0.08142796
0.08157526
0.08172425
0.08187496
0.08202742
0.08218165
0.08233768
0.08249554
0.08265527
0.08281688
0.08298042
0.08314591
0.08331338
0.08348286
0.08365437
0.08382795
0.08400363
0.08418142
0.08436135
0.08454346
0.08472776
0.08491428
0.08510304
0.08529408
0.08548741
0.08568308
0.08588110
0.08608150
0.08628432
0.08648959
0.08669734
0.08690762
0.08712045
0.08733587
0.08755393
0.08777466
0.08799812
0.08822433
0.08845335
0.08868521
0.08891998
0.08915768
0.08939838
0.08964211
0.08988894
0.09013890
0.09039205
0.09064845
0.09090813
0.09117116
0.09143758
0.09170746
0.09198083
0.09225776
0.09253829
0.09282249
0.09311040
0.09340207
0.09369757
0.09399695
0.09430025
0.09460755
0.09491888
0.09523432
0.09555392
0.09587775
0.09620585
0.09653831
0.09687517
0.09721651
0.09756239
0.09791288
0.09826805
0.09862798
0.09899273
0.09936238
0.09973701
0.10011669
0.10050152
0.10089156
0.10128692
0.10168767
0.10209391
0.10250573
0.10292324
0.10334653
0.10377571
0.10421087
0.10465214
0.10509962
0.10555344
0.10601371
0.10648055
0.10695410
0.10743449
0.10792185
0.10841633
0.10891807
0.10942721
0.10994390
0.11046827
0.11100049
0.11154067
0.11208895
0.11264545
0.11321026
0.11378347
0.11436513
0.11495526
0.11555383
0.11616078
0.11677594
0.11739910
0.11802994
0.11866799
0.11931265
0.11996316
0.12061852
0.12127748
0.12193850
0.12259966
0.12325864
0.12391265
0.12455832
0.12519165
0.12580791
0.12640154
0.12696606
0.12749395
0.12797655
0.12840397
0.12876493
0.12904672
0.12923510
0.12931420
0.12926651
0.12907286
0.12871243
0.12816285
0.12740032
0.12639978
0.12513523
0.12358003
0.12170735
0.11949066
0.11690430
0.11392414
0.11052829
0.10669780
0.10241740
0.09767625
0.09246860
0.08679439
0.08065978
0.07407744
0.06706686
0.05965430
0.05187272
0.04376141
0.03536549
0.02673525
0.01792530
0.00906357
0.00008915
0.00017714
0.00026628
0.00035608
0.00044678
0.00053860
0.00063177
0.00072650
0.00082303
0.00092159
0.00102239
0.00112566
0.00123164
0.00134055
0.00145261
0.00156807
0.00168714
0.00181006
0.00193706
0.00206836
0.00220421
0.00234483
0.00249046
0.00264133
0.00279766
0.00295970
0.00312768
0.00330183
0.00348238
0.00366956
0.00386361
0.00406475
0.00427322
0.00448925
0.00471305
0.00494487
0.00518492
0.00543342
0.00569060
0.00595667
0.00623185
0.00651635
0.00681039
0.00711416
0.00742787
0.00775173
0.00808591
0.00843063
0.00878605
0.00915237
0.00952975
0.00991838
0.01031841
0.01073001
0.01115332
0.01158850
0.01203569
0.01249501
0.01296660
0.01345058
0.01394705
0.01445613
0.01497791
0.01551248
0.01605992
0.01662031
0.01719370
0.01778016
0.01837973
0.01899245
0.01961836
0.02025747
0.02090979
0.02157533
0.02225409
0.02294605
0.02365119
0.02436947
0.02510085
0.02584529
0.02660271
0.02737306
0.02815625
0.02895219
0.02976079
0.03058194
0.03141551
0.03226140
0.03311944
0.03398950
0.03487142
0.03576503
0.03667014
0.03758657
0.03851410
0.03945253
0.04040162
0.04136112
0.04233077
0.04331031
0.04429944
0.04529784
0.04630520
0.04732117
0.04834539
0.04937745
0.05041696
0.05146348
0.05251654
0.05357566
0.05464033
0.05570999
0.05678407
0.05786196
0.05894302
0.06002656
0.06111186
0.06219819
0.06328474
0.06437069
0.06545517
0.06653727
0.06761605
0.06869053
0.06975970
0.07082251
0.07187787
0.07292470
0.07396185
0.07498818
0.07600253
0.07700373
0.07799062
0.07896203
0.07991680
0.08085382
0.08177199
0.08267024
0.08354757
0.08440301
0.08523569
0.08604478
0.08682956
0.08758938
0.08832369
0.08903204
0.08971410
0.09036963
0.09099852
0.09160075
0.09217643
0.09272578
0.09324911
0.09374684
0.09421949
0.09466767
0.09509206
0.09549343
0.09587260
0.09623044
0.09656790
0.09688592
0.09718550
0.09746764
0.09773337
0.09798371
0.09821966
0.09844224
0.09865242
0.09885117
0.09903942
0.09921807
0.09938798
0.09954999
0.09970488
0.09985340
0.09999626
0.10013412
0.10026761
0.10039731
0.10052376
0.10064747
0.10076889
0.10088847
0.10100660
0.10112362
0.10123988
0.10135567
0.10147126
0.10158689
0.10170279
0.10181914
0.10193614
0.10205393
0.10217265
0.10229242
0.10241336
0.10253556
0.10265910
0.10278406
0.10291050
0.10303847
0.10316804
0.10329923
0.10343209
0.10356666
0.10370296
0.10384101
0.10398085
0.10412250
0.10426597
0.10441129
0.10455846
0.10470751
0.10485845
0.10501129
0.10516604
0.10532272
0.10548134
0.10564191
0.10580443
0.10596891
0.10613537
0.10630381
0.10647424
0.10664667
0.10682112
0.10699758
0.10717609
0.10735664
0.10753925
0.10772395
0.10791075
0.10809968
0.10829075
0.10848401
0.10867947
0.10887716
0.10907713
0.10927941
0.10948403
0.10969104
0.10990047
0.11011236
0.11032676
0.11054370
0.11076323
0.11098538
0.11121019
0.11143770
0.11166795
0.11190097
0.11213680
0.11237547
0.11261702
0.11286148
0.11310888
0.11335925
0.11361264
0.11386907
0.11412858
0.11439121
0.11465700
0.11492598
0.11519821
0.11547372
0.11575256
0.11603479
0.11632044
0.11660958
0.11690226
0.11719853
0.11749845
0.11780209
0.11810949
0.11842072
0.11873586
0.11905495
0.11937806
0.11970527
0.12003663
0.12037222
0.12071210
0.12105635
0.12140503
0.12175821
0.12211597
0.12247837
0.12284548
0.12321738
0.12359413
0.12397581
0.12436248
0.12475421
0.12515108
0.12555317
0.12596053
0.12637326
0.12679142
0.12721509
0.12764435
0.12807928
0.12851996
0.12896649
0.12941893
0.12987740
0.13034196
0.13081272
0.13128976
0.13177319
0.13226311
0.13275960
0.13326279
0.13377278
0.13428967
0.13481358
0.13534464
0.13588295
0.13642865
0.13698185
0.13754271
0.13811134
0.13868790
0.13927252
0.13986536
0.14046656
0.14107628
0.14169470
0.14232197
0.14295828
0.14360379
0.14425871
0.14492320
0.14559747
0.14628170
0.14697609
0.14768082
0.14839607
0.14912200
0.14985879
0.15060655
0.15136539
0.15213538
0.15291655
0.15370886
0.15451221
0.15532642
0.15615116
0.15698603
0.15783042
0.15868355
0.15954438
0.16041163
0.16128363
0.16215837
0.16303332
0.16390544
0.16477104
0.16562569
0.16646412
0.16728010
0.16806632
0.16881422
0.16951390
0.17015393
0.17072124
0.17120095
0.17157628
0.17182835
0.17193619
0.17187659
0.17162412
0.17115116
0.17042796
0.16942285
0.16810246
0.16643208
0.16437613
0.16189868
0.15896419
0.15553820
0.15158826
0.14708483
0.14200230
0.13631996
0.13002299
0.12310338
0.11556077
0.10740307
0.09864704
0.08931850
0.07945244
0.06909280
0.05829205
0.04711052
0.03561544
0.02387987
0.01207457
0.00011126
0.00022109
0.00033234
0.00044442
0.00055763
0.00067223
0.00078851
0.00090674
0.00102722
0.00115023
0.00127604
0.00140493
0.00153720
0.00167313
0.00181300
0.00195710
0.00210571
0.00225912
0.00241763
0.00258151
0.00275106
0.00292657
0.00310833
0.00329662
0.00349175
0.00369399
0.00390364
0.00412099
0.00434633
0.00457995
0.00482214
0.00507319
0.00533338
0.00560300
0.00588233
0.00617166
0.00647126
0.00678141
0.00710240
0.00743448
0.00777793
0.00813301
0.00850000
0.00887913
0.00927067
0.00967487
0.01009197
0.01052220
0.01096581
0.01142300
0.01189402
0.01237906
0.01287834
0.01339205
0.01392038
0.01446353
0.01502166
0.01559494
0.01618354
0.01678759
0.01740724
0.01804263
0.01869386
0.01936106
0.02004433
0.02074375
0.02145941
0.02219138
0.02293972
0.02370447
0.02448568
0.02528337
0.02609756
0.02692825
0.02777544
0.02863911
0.02951923
0.03041576
0.03132865
0.03225784
0.03320325
0.03416479
0.03514238
0.03613589
0.03714520
0.03817019
0.03921071
0.04026660
0.04133768
0.04242378
0.04352470
0.04464023
0.04577014
0.04691420
0.04807215
0.04924372
0.05042863
0.05162657
0.05283722
0.05406025
0.05529528
0.05654195
0.05779984
0.05906853
0.06034756
0.06163646
0.06293471
0.06424178
0.06555709
0.06688004
0.06821000
0.06954627
0.07088816
0.07223489
0.07358567
0.07493965
0.07629595
0.07765363
0.07901169
0.08036912
0.08172483
0.08307769
0.08442652
0.08577010
0.08710716
0.08843639
0.08975644
0.09106593
0.09236343
0.09364751
0.09491671
0.09616957
0.09740461
0.09862036
0.09981538
0.10098824
0.10213755
0.10326198
0.10436025
0.10543114
0.10647353
0.10748638
0.10846877
0.10941987
0.11033899
0.11122555
0.11207912
0.11289940
0.11368623
0.11443961
0.11515965
0.11584663
0.11650094
0.11712311
0.11771379
0.11827376
0.11880386
0.11930508
0.11977843
0.12022505
0.12064608
0.12104276
0.12141632
0.12176804
0.12209920
0.12241108
0.12270497
0.12298212
0.12324377
0.12349112
0.12372535
0.12394759
0.12415892
0.12436039
0.12455297
0.12473762
0.12491520
0.12508656
0.12525248
0.12541368
0.12557084
0.12572460
0.12587552
0.12602415
0.12617097
0.12631644
0.12646096
0.12660491
0.12674862
0.12689240
0.12703651
0.12718120
0.12732669
0.12747318
0.12762083
0.12776980
0.12792022
0.12807221
0.12822587
0.12838129
0.12853855
0.12869772
0.12885886
0.12902203
0.12918726
0.12935461
0.12952410
0.12969577
0.12986965
0.13004577
0.13022414
0.13040481
0.13058777
0.13077306
0.13096069
0.13115067
0.13134304
0.13153779
0.13173494
0.13193450
0.13213650
0.13234093
0.13254782
0.13275716
0.13296898
0.13318327
0.13340007
0.13361937
0.13384120
0.13406557
0.13429249
0.13452200
0.13475410
0.13498884
0.13522624
0.13546633
0.13570916
0.13595474
0.13620314
0.13645440
0.13670855
0.13696566
0.13722576
0.13748891
0.13775516
0.13802456
0.13829717
0.13857303
0.13885218
0.13913469
0.13942059
0.13970994
0.14000276
0.14029912
0.14059904
0.14090257
0.14120975
0.14152062
0.14183523
0.14215360
0.14247580
0.14280185
0.14313182
0.14346574
0.14380368
0.14414568
0.14449180
0.14484210
0.14519665
0.14555550
0.14591874
0.14628641
0.14665861
0.14703539
0.14741684
0.14780304
0.14819406
0.14858998
0.14899088
0.14939686
0.14980799
0.15022436
0.15064606
0.15107317
0.15150578
0.15194399
0.15238787
0.15283751
0.15329300
0.15375444
0.15422190
0.15469547
0.15517524
0.15566129
0.15615372
0.15665261
0.15715805
0.15767013
0.15818895
0.15871459
0.15924717
0.15978676
0.16033349
0.16088745
0.16144874
0.16201748
0.16259377
0.16317773
0.16376948
0.16436912
0.16497679
0.16559261
0.16621671
0.16684922
0.16749027
0.16814001
0.16879857
0.16946612
0.17014281
0.17082878
0.17152420
0.17222925
0.17294409
0.17366890
0.17440386
0.17514916
0.17590499
0.17667155
0.17744905
0.17823771
0.17903774
0.17984937
0.18067282
0.18150834
0.18235616
0.18321651
0.18408962
0.18497572
0.18587501
0.18678767
0.18771388
0.18865376
0.18960740
0.19057482
0.19155599
0.19255076
0.19355892
0.19458008
0.19561372
0.19665910
0.19771526
0.19878094
0.19985452
0.20093401
0.20201688
0.20310007
0.20417982
0.20525160
0.20630996
0.20734843
0.20835934
0.20933368
0.21026093
0.21112887
0.21192344
0.21262849
0.21322566
0.21369419
0.21401077
0.21414941
0.21408133
0.21377499
0.21319604
0.21230747
0.21106977
0.20944129
0.20737859
0.20483708
0.20177164
0.19813752
0.19389127
0.18899184
0.18340179
0.17708851
0.17002552
0.16219370
0.15358251
0.14419098
0.13402863
0.12311607
0.11148539
0.09918025
0.08625561
0.07277720
0.05882066
0.04447037
0.02981803
0.01507744
0.00013327
0.00026482
0.00039806
0.00053231
0.00066790
0.00080517
0.00094444
0.00108607
0.00123037
0.00137770
0.00152839
0.00168278
0.00184121
0.00200402
0.00217155
0.00234414
0.00252214
0.00270590
0.00289575
0.00309204
0.00329512
0.00350534
0.00372304
0.00394857
0.00418228
0.00442452
0.00467563
0.00493597
0.00520587
0.00548570
0.00577578
0.00607648
0.00638812
0.00671106
0.00704563
0.00739218
0.00775103
0.00812252
0.00850698
0.00890473
0.00931610
0.00974141
0.01018097
0.01063508
0.01110406
0.01158819
0.01208777
0.01260309
0.01313442
0.01368203
0.01424620
0.01482716
0.01542518
0.01604048
0.01667331
0.01732387
0.01799238
0.01867904
0.01938404
0.02010756
0.02084976
0.02161081
0.02239084
0.02319000
0.02400841
0.02484616
0.02570337
0.02658012
0.02747647
0.02839249
0.02932822
0.03028370
0.03125895
0.03225396
0.03326875
0.03430328
0.03535752
0.03643142
0.03752493
0.03863797
0.03977044
0.04092226
0.04209330
0.04328343
0.04449251
0.04572038
0.04696687
0.04823179
0.04951494
0.05081610
0.05213503
0.05347149
0.05482522
0.05619592
0.05758330
0.05898705
0.06040681
0.06184223
0.06329293
0.06475851
0.06623854
0.06773256
0.06924011
0.07076066
0.07229369
0.07383863
0.07539486
0.07696176
0.07853864
0.08012478
0.08171943
0.08332178
0.08493098
0.08654613
0.08816627
0.08979040
0.09141745
0.09304632
0.09467582
0.09630473
0.09793174
0.09955551
0.10117463
0.10278762
0.10439298
0.10598911
0.10757441
0.10914719
0.11070576
0.11224838
0.11377329
0.11527872
0.11676287
0.11822398
0.11966029
0.12107006
0.12245162
0.12380333
0.12512363
0.12641105
0.12766420
0.12888184
0.13006280
0.13120610
0.13231086
0.13337640
0.13440216
0.13538779
0.13633307
0.13723799
0.13810270
0.13892751
0.13971290
0.14045952
0.14116815
0.14183973
0.14247529
0.14307602
0.14364316
0.14417807
0.14468217
0.14515693
0.14560386
0.14602451
0.14642042
0.14679316
0.14714427
0.14747527
0.14778766
0.14808290
0.14836239
0.14862751
0.14887955
0.14911978
0.14934938
0.14956948
0.14978113
0.14998535
0.15018307
0.15037516
0.15056243
0.15074564
0.15092549
0.15110260
0.15127758
0.15145095
0.15162321
0.15179480
0.15196611
0.15213752
0.15230934
0.15248187
0.15265536
0.15283005
0.15300614
0.15318381
0.15336321
0.15354449
0.15372777
0.15391314
0.15410071
0.15429056
0.15448274
0.15467734
0.15487439
0.15507395
0.15527606
0.15548076
0.15568808
0.15589805
0.15611070
0.15632606
0.15654416
0.15676502
0.15698865
0.15721508
0.15744434
0.15767643
0.15791138
0.15814920
0.15838991
0.15863352
0.15888005
0.15912950
0.15938189
0.15963724
0.15989556
0.16015686
0.16042115
0.16068847
0.16095882
0.16123223
0.16150874
0.16178836
0.16207113
0.16235710
0.16264629
0.16293877
0.16323457
0.16353375
0.16383637
0.16414249
0.16445215
0.16476544
0.16508239
0.16540309
0.16572759
0.16605595
0.16638823
0.16672450
0.16706479
0.16740918
0.16775771
0.16811044
0.16846741
0.16882866
0.16919426
0.16956425
0.16993866
0.17031756
0.17070099
0.17108900
0.17148165
0.17187900
0.17228110
0.17268801
0.17309981
0.17351657
0.17393835
0.17436523
0.17479729
0.17523463
0.17567731
0.17612543
0.17657908
0.17703836
0.17750335
0.17797417
0.17845090
0.17893365
0.17942253
0.17991763
0.18041906
0.18092693
0.18144134
0.18196241
0.18249023
0.18302491
0.18356655
0.18411526
0.18467114
0.18523429
0.18580481
0.18638281
0.18696839
0.18756164
0.18816268
0.18877161
0.18938854
0.19001357
0.19064683
0.19128843
0.19193848
0.19259711
0.19326444
0.19394061
0.19462573
0.19531995
0.19602339
0.19673621
0.19745853
0.19819051
0.19893231
0.19968407
0.20044595
0.20121813
0.20200077
0.20279404
0.20359814
0.20441324
0.20523954
0.20607723
0.20692651
0.20778759
0.20866069
0.20954602
0.21044381
0.21135430
0.21227772
0.21321432
0.21416437
0.21512812
0.21610585
0.21709784
0.21810436
0.21912568
0.22016208
0.22121382
0.22228114
0.22336426
0.22446338
0.22557864
0.22671015
0.22785792
0.22902193
0.23020200
0.23139786
0.23260906
0.23383500
0.23507479
0.23632731
0.23759107
0.23886419
0.24014430
0.24142845
0.24271304
0.24399365
0.24526495
0.24652055
0.24775282
0.24895275
0.25010973
0.25121136
0.25224325
0.25318879
0.25402894
0.25474199
0.25530339
0.25568551
0.25585754
0.25578532
0.25543131
0.25475459
0.25371099
0.25225325
0.25033145
0.24789342
0.24488546
0.24125311
0.23694221
0.23190004
0.22607662
0.21942622
0.21190884
0.20349180
0.19415129
0.18387383
0.17265754
0.16051324
0.14746520
0.13355168
0.11882495
0.10335103
0.08720903
0.07049007
0.05329590
0.03573717
0.01807089
0.00015514
0.00030827
0.00046338
0.00061966
0.00077750
0.00093729
0.00109942
0.00126429
0.00143227
0.00160378
0.00177919
0.00195892
0.00214334
0.00233287
0.00252789
0.00272880
0.00293602
0.00314992
0.00337093
0.00359943
0.00383584
0.00408055
0.00433398
0.00459651
0.00486858
0.00515056
0.00544288
0.00574593
0.00606013
0.00638587
0.00672355
0.00707359
0.00743637
0.00781230
0.00820178
0.00860519
0.00902292
0.00945537
0.00990292
0.01036594
0.01084482
0.01133991
0.01185160
0.01238023
0.01292616
0.01348973
0.01407129
0.01467117
0.01528969
0.01592716
0.01658390
0.01726020
0.01795635
0.01867262
0.01940929
0.02016661
0.02094483
0.02174417
0.02256486
0.02340711
0.02427112
0.02515706
0.02606511
0.02699542
0.02794814
0.02892339
0.02992128
0.03094192
0.03198540
0.03305177
0.03414109
0.03525340
0.03638874
0.03754709
0.03872846
0.03993283
0.04116015
0.04241038
0.04368344
0.04497924
0.04629770
0.04763868
0.04900205
0.05038767
0.05179537
0.05322497
0.05467627
0.05614906
0.05764309
0.05915813
0.06069389
0.06225011
0.06382646
0.06542263
0.06703826
0.06867300
0.07032645
0.07199820
0.07368782
0.07539483
0.07711875
0.07885905
0.08061520
0.08238660
0.08417263
0.08597264
0.08778594
0.08961180
0.09144942
0.09329798
0.09515662
0.09702439
0.09890031
0.10078336
0.10267241
0.10456632
0.10646385
0.10836371
0.11026454
0.11216491
0.11406331
0.11595817
0.11784785
0.11973064
0.12160477
0.12346839
0.12531961
0.12715647
0.12897698
0.13077910
0.13256075
0.13431985
0.13605430
0.13776200
0.13944087
0.14108887
0.14270401
0.14428434
0.14582802
0.14733328
0.14879850
0.15022216
0.15160289
0.15293950
0.15423095
0.15547640
0.15667519
0.15782689
0.15893124
0.15998820
0.16099795
0.16196084
0.16287746
0.16374854
0.16457502
0.16535799
0.16609871
0.16679853
0.16745897
0.16808162
0.16866815
0.16922030
0.16973986
0.17022865
0.17068851
0.17112127
0.17152874
0.17191273
0.17227499
0.17261724
0.17294113
0.17324827
0.17354019
0.17381834
0.17408414
0.17433889
0.17458383
0.17482014
0.17504891
0.17527115
0.17548782
0.17569978
0.17590786
0.17611279
0.17631526
0.17651589
0.17671525
0.17691385
0.17711216
0.17731059
0.17750952
0.17770929
0.17791019
0.17811250
0.17831643
0.17852221
0.17873001
0.17893999
0.17915228
0.17936701
0.17958427
0.17980417
0.18002678
0.18025216
0.18048038
0.18071149
0.18094554
0.18118256
0.18142261
0.18166571
0.18191189
0.18216120
0.18241365
0.18266927
0.18292810
0.18319015
0.18345546
0.18372403
0.18399590
0.18427109
0.18454961
0.18483147
0.18511671
0.18540533
0.18569734
0.18599277
0.18629162
0.18659391
0.18689967
0.18720890
0.18752163
0.18783789
0.18815771
0.18848111
0.18880813
0.18913883
0.18947323
0.18981140
0.19015340
0.19049927
0.19084909
0.19120293
0.19156085
0.19192292
0.19228922
0.19265983
0.19303481
0.19341425
0.19379820
0.19418674
0.19457994
0.19497785
0.19538055
0.19578808
0.19620052
0.19661790
0.19704029
0.19746774
0.19790030
0.19833803
0.19878098
0.19922920
0.19968276
0.20014172
0.20060615
0.20107612
0.20155170
0.20203296
0.20252001
0.20301291
0.20351177
0.20401667
0.20452772
0.20504503
0.20556869
0.20609882
0.20663553
0.20717893
0.20772915
0.20828631
0.20885052
0.20942191
0.21000061
0.21058674
0.21118042
0.21178179
0.21239095
0.21300805
0.21363319
0.21426649
0.21490808
0.21555806
0.21621656
0.21688369
0.21755956
0.21824429
0.21893799
0.21964080
0.22035281
0.22107417
0.22180500
0.22254542
0.22329559
0.22405562
0.22482567
0.22560588
0.22639639
0.22719737
0.22800896
0.22883132
0.22966462
0.23050902
0.23136470
0.23223184
0.23311061
0.23400121
0.23490383
0.23581868
0.23674596
0.23768588