# vtk DataFile Version 3.0
Concentration output
ASCII
DATASET STRUCTURED_POINTS
DIMENSIONS 398 98 1
ORIGIN 0 0 0
SPACING 0.03 0.03 1.0
POINT_DATA 39004
SCALARS concentration float 1
LOOKUP_TABLE default
0.00000919
0.00001829
0.00002757
0.00003701
0.00004668
0.00005662
0.00006689
0.00007755
0.00008866
0.00010027
0.00011245
0.00012526
0.00013876
0.00015302
0.00016811
0.00018408
0.00020102
0.00021900
0.00023808
0.00025835
0.00027988
0.00030276
0.00032706
0.00035288
0.00038029
0.00040940
0.00044029
0.00047305
0.00050779
0.00054459
0.00058357
0.00062483
0.00066847
0.00071459
0.00076331
0.00081474
0.00086900
0.00092618
0.00098642
0.00104982
0.00111651
0.00118661
0.00126022
0.00133748
0.00141850
0.00150340
0.00159230
0.00168533
0.00178259
0.00188420
0.00199028
0.00210095
0.00221631
0.00233648
0.00246156
0.00259165
0.00272687
0.00286730
0.00301303
0.00316417
0.00332079
0.00348298
0.00365081
0.00382435
0.00400366
0.00418882
0.00437986
0.00457685
0.00477981
0.00498879
0.00520382
0.00542490
0.00565207
0.00588532
0.00612466
0.00637008
0.00662156
0.00687908
0.00714261
0.00741211
0.00768754
0.00796884
0.00825596
0.00854881
0.00884734
0.00915144
0.00946104
0.00977603
0.01009630
0.01042174
0.01075222
0.01108762
0.01142779
0.01177259
0.01212186
0.01247545
0.01283317
0.01319485
0.01356031
0.01392933
0.01430172
0.01467726
0.01505571
0.01543685
0.01582041
0.01620615
0.01659378
0.01698302
0.01737357
0.01776511
0.01815731
0.01854983
0.01894230
0.01933434
0.01972557
0.02011555
0.02050387
0.02089008
0.02127371
0.02165427
0.02203128
0.02240421
0.02277255
0.02313577
0.02349331
0.02384463
0.02418920
0.02452646
0.02485588
0.02517695
0.02548916
0.02579203
0.02608512
0.02636803
0.02664040
0.02690190
0.02715229
0.02739136
0.02761899
0.02783510
0.02803971
0.02823289
0.02841479
0.02858563
0.02874571
0.02889537
0.02903503
0.02916515
0.02928625
0.02939889
0.02950365
0.02960115
0.02969201
0.02977688
0.02985639
0.02993119
0.03000188
0.03006908
0.03013336
0.03019529
0.03025538
0.03031412
0.03037197
0.03042935
0.03048664
0.03054419
0.03060231
0.03066128
0.03072134
0.03078271
0.03084557
0.03091010
0.03097642
0.03104464
0.03111488
0.03118719
0.03126165
0.03133830
0.03141719
0.03149833
0.03158175
0.03166745
0.03175544
0.03184572
0.03193828
0.03203311
0.03213020
0.03222954
0.03233111
0.03243489
0.03254088
0.03264904
0.03275938
0.03287187
0.03298650
0.03310326
0.03322215
0.03334316
0.03346629
0.03359153
0.03371888
0.03384836
0.03397995
0.03411369
0.03424956
0.03438760
0.03452780
0.03467020
0.03481482
0.03496166
0.03511077
0.03526216
0.03541587
0.03557193
0.03573037
0.03589122
0.03605453
0.03622034
0.03638868
0.03655960
0.03673316
0.03690939
0.03708835
0.03727010
0.03745468
0.03764217
0.03783262
0.03802609
0.03822266
0.03842239
0.03862537
0.03883165
0.03904133
0.03925449
0.03947122
0.03969161
0.03991574
0.04014373
0.04037568
0.04061169
0.04085187
0.04109634
0.04134523
0.04159865
0.04185675
0.04211965
0.04238750
0.04266046
0.04293867
0.04322229
0.04351151
0.04380650
0.04410744
0.04441454
0.04472799
0.04504801
0.04537483
0.04570868
0.04604981
0.04639849
0.04675498
0.04711958
0.04749259
0.04787432
0.04826511
0.04866531
0.04907530
0.04949547
0.04992622
0.05036800
0.05082128
0.05128653
0.05176429
0.05225511
0.05275957
0.05327831
0.05381199
0.05436132
0.05492708
0.05551008
0.05611118
0.05673134
0.05737155
0.05803290
0.05871655
0.05942376
0.06015589
0.06091440
0.06170090
0.06251713
0.06336498
0.06424652
0.06516402
0.06611998
0.06711714
0.06815854
0.06924753
0.07038786
0.07158369
0.07283967
0.07416103
0.07555368
0.07702429
0.07858048
0.08023095
0.08198569
0.08385629
0.08585622
0.08800126
0.09031005
0.09280479
0.09551214
0.09846447
0.10170156
0.10527288
0.10924101
0.11368633
0.11871431
0.12446659
0.13113938
0.13901529
0.14851982
0.16031779
0.17547234
0.19574367
0.22433213
0.26700449
0.31979175
0.23286527
0.13241599
0.07205903
0.03979041
0.02257378
0.01313632
0.00780630
0.00471718
0.00288900
0.00178881
0.00111772
0.00070379
0.00044609
0.00028438
0.00018221
0.00011727
0.00007578
0.00004914
0.00003198
0.00002087
0.00001365
0.00000896
0.00000589
0.00000388
0.00000256
0.00000169
0.00000112
0.00000074
0.00000049
0.00000033
0.00000022
0.00000015
0.00000010
0.00000007
0.00000004
0.00000003
0.00000002
0.00000001
0.00000001
0.00000001
0.00000000
0.00000000
0.00000000
0.00000000
0.00000000
0.00000000
0.00000000
0.00000000
0.00000000
0.00000000
0.00000000
0.00000000
0.00000000
0.00000000
0.00000000
0.00000000
0.00000000
0.00000000
0.00000000
0.00000000
0.00000000
0.00000000
0.00000000
0.00000000
0.00000000
0.00000000
0.00000000
0.00000000
0.00000000
0.00000000
0.00001837
0.00003656
0.00005511
0.00007399
0.00009331
0.00011317
0.00013370
0.00015501
0.00017721
0.00020043
0.00022478
0.00025038
0.00027737
0.00030588
0.00033603
0.00036796
0.00040182
0.00043775
0.00047590
0.00051642
0.00055946
0.00060519
0.00065377
0.00070537
0.00076017
0.00081835
0.00088009
0.00094558
0.00101502
0.00108859
0.00116651
0.00124897
0.00133620
0.00142840
0.00152579
0.00162859
0.00173704
0.00185135
0.00197175
0.00209849
0.00223180
0.00237191
0.00251906
0.00267349
0.00283544
0.00300514
0.00318285
0.00336879
0.00356319
0.00376631
0.00397835
0.00419956
0.00443016
0.00467036
0.00492037
0.00518042
0.00545069
0.00573139
0.00602270
0.00632480
0.00663786
0.00696205
0.00729751
0.00764439
0.00800282
0.00837292
0.00875479
0.00914853
0.00955422
0.00997194
0.01040174
0.01084366
0.01129772
0.01176396
0.01224235
0.01273290
0.01323556
0.01375030
0.01427705
0.01481574
0.01536627
0.01592854
0.01650243
0.01708780
0.01768449
0.01829235
0.01891117
0.01954078
0.02018094
0.02083144
0.02149201
0.02216242
0.02284236
0.02353157
0.02422971
0.02493648
0.02565152
0.02637448
0.02710498
0.02784262
0.02858700
0.02933767
0.03009419
0.03085607
0.03162283
0.03239393
0.03316884
0.03394697
0.03472773
0.03551049
0.03629459
0.03707934
0.03786402
0.03864787
0.03943010
0.04020989
0.04098638
0.04175866
0.04252581
0.04328687
0.04404084
0.04478671
0.04552341
0.04624989
0.04696505
0.04766781
0.04835707
0.04903175
0.04969076
0.05033308
0.05095768
0.05156362
0.05215000
0.05271600
0.05326088
0.05378403
0.05428492
0.05476314
0.05521842
0.05565064
0.05605980
0.05644606
0.05680970
0.05715118
0.05747107
0.05777008
0.05804903
0.05830886
0.05855061
0.05877540
0.05898440
0.05917885
0.05936000
0.05952915
0.05968757
0.05983655
0.05997732
0.06011111
0.06023907
0.06036232
0.06048190
0.06059881
0.06071394
0.06082813
0.06094217
0.06105673
0.06117244
0.06128986
0.06140948
0.06153172
0.06165697
0.06178553
0.06191769
0.06205366
0.06219365
0.06233780
0.06248624
0.06263907
0.06279635
0.06295815
0.06312449
0.06329540
0.06347088
0.06365092
0.06383552
0.06402466
0.06421831
0.06441645
0.06461903
0.06482604
0.06503744
0.06525319
0.06547327
0.06569764
0.06592630
0.06615921
0.06639636
0.06663773
0.06688332
0.06713313
0.06738716
0.06764541
0.06790790
0.06817464
0.06844566
0.06872098
0.06900063
0.06928465
0.06957308
0.06986597
0.07016336
0.07046531
0.07077187
0.07108311
0.07139909
0.07171989
0.07204558
0.07237624
0.07271195
0.07305281
0.07339891
0.07375033
0.07410720
0.07446961
0.07483767
0.07521151
0.07559124
0.07597700
0.07636892
0.07676713
0.07717179
0.07758305
0.07800106
0.07842600
0.07885803
0.07929734
0.07974412
0.08019856
0.08066086
0.08113125
0.08160994
0.08209716
0.08259315
0.08309817
0.08361248
0.08413634
0.08467004
0.08521388
0.08576816
0.08633321
0.08690937
0.08749699
0.08809645
0.08870812
0.08933242
0.08996977
0.09062061
0.09128543
0.09196470
0.09265894
0.09336870
0.09409455
0.09483708
0.09559692
0.09637474
0.09717123
0.09798713
0.09882321
0.09968029
0.10055923
0.10146095
0.10238641
0.10333665
0.10431276
0.10531590
0.10634731
0.10740830
0.10850028
0.10962476
0.11078335
0.11197776
0.11320985
0.11448158
0.11579510
0.11715267
0.11855678
0.12001009
0.12151549
0.12307610
0.12469533
0.12637689
0.12812483
0.12994360
0.13183806
0.13381357
0.13587605
0.13803205
0.14028882
0.14265446
0.14513801
0.14774960
0.15050066
0.15340410
0.15647458
0.15972886
0.16318616
0.16686865
0.17080209
0.17501657
0.17954748
0.18443681
0.18973479
0.19550208
0.20181273
0.20875826
0.21645332
0.22504371
0.23471808
0.24572540
0.25840241
0.27321879
0.29085178
0.31229841
0.33900193
0.37288946
0.41601751
0.46801264
0.50593340
0.36415190
0.21788963
0.12476750
0.07156163
0.04165101
0.02465238
0.01481832
0.00902652
0.00556078
0.00345856
0.00216867
0.00136944
0.00087005
0.00055576
0.00035669
0.00022991
0.00014875
0.00009658
0.00006290
0.00004108
0.00002690
0.00001766
0.00001162
0.00000766
0.00000506
0.00000335
0.00000222
0.00000147
0.00000098
0.00000065
0.00000043
0.00000029
0.00000019
0.00000013
0.00000009
0.00000006
0.00000004
0.00000003
0.00000002
0.00000001
0.00000001
0.00000001
0.00000000
0.00000000
0.00000000
0.00000000
0.00000000
0.00000000
0.00000000
0.00000000
0.00000000
0.00000000
0.00000000
0.00000000
0.00000000
0.00000000
0.00000000
0.00000000
0.00000000
0.00000000
0.00000000
0.00000000
0.00000000
0.00000000
0.00000000
0.00000000
0.00000000
0.00000000
0.00000000
0.00000000
0.00002752
0.00005479
0.00008259
0.00011088
0.00013983
0.00016961
0.00020038
0.00023231
0.00026558
0.00030037
0.00033686
0.00037523
0.00041568
0.00045840
0.00050359
0.00055145
0.00060219
0.00065604
0.00071320
0.00077392
0.00083843
0.00090696
0.00097976
0.00105710
0.00113923
0.00122642
0.00131894
0.00141709
0.00152114
0.00163140
0.00174817
0.00187176
0.00200247
0.00214065
0.00228660
0.00244066
0.00260318
0.00277449
0.00295493
0.00314487
0.00334464
0.00355461
0.00377513
0.00400656
0.00424926
0.00450359
0.00476989
0.00504854
0.00533989
0.00564427
0.00596204
0.00629355
0.00663912
0.00699908
0.00737375
0.00776345
0.00816848
0.00858913
0.00902569
0.00947841
0.00994756
0.01043338
0.01093610
0.01145592
0.01199305
0.01254766
0.01311992
0.01370997
0.01431792
0.01494390
0.01558797
0.01625021
0.01693066
0.01762933
0.01834623
0.01908133
0.01983459
0.02060595
0.02139530
0.02220254
0.02302753
0.02387012
0.02473011
0.02560730
0.02650147
0.02741235
0.02833969
0.02928317
0.03024248
0.03121727
0.03220717
0.03321180
0.03423074
0.03526355
0.03630977
0.03736892
0.03844047
0.03952390
0.04061865
0.04172411
0.04283968
0.04396470
0.04509850
0.04624037
0.04738955
0.04854529
0.04970675
0.05087308
0.05204339
0.05321674
0.05439214
0.05556857
0.05674494
0.05792012
0.05909294
0.06026216
0.06142648
0.06258458
0.06373506
0.06487648
0.06600734
0.06712611
0.06823123
0.06932107
0.07039403
0.07144844
0.07248266
0.07349506
0.07448401
0.07544793
0.07638532
0.07729470
0.07817474
0.07902419
0.07984193
0.08062700
0.08137861
0.08209614
0.08277917
0.08342748
0.08404109
0.08462022
0.08516530
0.08567700
0.08615618
0.08660391
0.08702143
0.08741017
0.08777167
0.08810764
0.08841984
0.08871014
0.08898044
0.08923270
0.08946884
0.08969079
0.08990042
0.09009958
0.09029001
0.09047339
0.09065129
0.09082520
0.09099648
0.09116639
0.09133608
0.09150660
0.09167887
0.09185372
0.09203190
0.09221403
0.09240069
0.09259233
0.09278937
0.09299215
0.09320095
0.09341599
0.09363747
0.09386551
0.09410024
0.09434172
0.09459001
0.09484514
0.09510711
0.09537591
0.09565153
0.09593394
0.09622309
0.09651895
0.09682146
0.09713059
0.09744627
0.09776846
0.09809712
0.09843220
0.09877366
0.09912148
0.09947563
0.09983610
0.10020286
0.10057591
0.10095526
0.10134091
0.10173289
0.10213122
0.10253593
0.10294705
0.10336464
0.10378875
0.10421943
0.10465676
0.10510080
0.10555164
0.10600936
0.10647406
0.10694582
0.10742476
0.10791100
0.10840463
0.10890580
0.10941464
0.10993127
0.11045585
0.11098852
0.11152945
0.11207881
0.11263675
0.11320348
0.11377917
0.11436403
0.11495826
0.11556207
0.11617571
0.11679939
0.11743337
0.11807790
0.11873325
0.11939970
0.12007755
0.12076708
0.12146863
0.12218252
0.12290908
0.12364868
0.12440168
0.12516848
0.12594946
0.12674506
0.12755571
0.12838186
0.12922399
0.13008261
0.13095823
0.13185140
0.13276269
0.13369271
0.13464208
0.13561146
0.13660153
0.13761303
0.13864672
0.13970339
0.14078389
0.14188909
0.14301992
0.14417736
0.14536244
0.14657622
0.14781986
0.14909455
0.15040156
0.15174223
0.15311799
0.15453034
0.15598089
0.15747134
0.15900349
0.16057929
0.16220079
0.16387020
0.16558985
0.16736228
0.16919016
0.17107639
0.17302407
0.17503653
0.17711735
0.17927042
0.18149993
0.18381041
0.18620680
0.18869447
0.19127927
0.19396762
0.19676654
0.19968375
0.20272775
0.20590794
0.20923472
0.21271966
0.21637566
0.22021716
0.22426035
0.22852354
0.23302744
0.23779562
0.24285504
0.24823670
0.25397642
0.26011585
0.26670372
0.27379747
0.28146529
0.28978883
0.29886683
0.30881984
0.31979677
0.33198379
0.34561676
0.36099863
0.37852485
0.39872171
0.42230422
0.45025075
0.48383946
0.52439640
0.57169115
0.61602569
0.60469642
0.42653837
0.26374100
0.15715790
0.09325043
0.05570980
0.03362126
0.02050443
0.01262779
0.00784545
0.00491227
0.00309689
0.00196429
0.00125264
0.00080267
0.00051656
0.00033374
0.00021638
0.00014074
0.00009181
0.00006005
0.00003938
0.00002588
0.00001705
0.00001125
0.00000744
0.00000493
0.00000327
0.00000217
0.00000144
0.00000096
0.00000064
0.00000043
0.00000029
0.00000019
0.00000013
0.00000009
0.00000006
0.00000004
0.00000003
0.00000002
0.00000001
0.00000001
0.00000001
0.00000000
0.00000000
0.00000000
0.00000000
0.00000000
0.00000000
0.00000000
0.00000000
0.00000000
0.00000000
0.00000000
0.00000000
0.00000000
0.00000000
0.00000000
0.00000000
0.00000000
0.00000000
0.00000000
0.00000000
0.00000000
0.00000000
0.00000000
0.00000000
0.00000000
0.00000000
0.00000000
0.00003665
0.00007296
0.00010998
0.00014766
0.00018621
0.00022586
0.00026683
0.00030935
0.00035366
0.00039999
0.00044858
0.00049968
0.00055354
0.00061043
0.00067060
0.00073434
0.00080191
0.00087361
0.00094974
0.00103059
0.00111649
0.00120775
0.00130470
0.00140768
0.00151705
0.00163315
0.00175636
0.00188706
0.00202562
0.00217245
0.00232794
0.00249251
0.00266657
0.00285057
0.00304492
0.00325008
0.00346649
0.00369460
0.00393489
0.00418781
0.00445383
0.00473343
0.00502708
0.00533525
0.00565843
0.00599709
0.00635171
0.00672276
0.00711071
0.00751603
0.00793917
0.00838060
0.00884076
0.00932008
0.00981899
0.01033791
0.01087724
0.01143737
0.01201867
0.01262150
0.01324621
0.01389311
0.01456251
0.01525469
0.01596990
0.01670840
0.01747039
0.01825607
0.01906559
0.01989910
0.02075671
0.02163850
0.02254454
0.02347484
0.02442941
0.02540822
0.02641120
0.02743827
0.02848931
0.02956416
0.03066265
0.03178455
0.03292964
0.03409763
0.03528822
0.03650107
0.03773582
0.03899208
0.04026941
0.04156736
0.04288544
0.04422314
0.04557989
0.04695513
0.04834823
0.04975855
0.05118541
0.05262811
0.05408589
0.05555797
0.05704353
0.05854172
0.06005163
0.06157232
0.06310282
0.06464208
0.06618902
0.06774252
0.06930138
0.07086437
0.07243018
0.07399744
0.07556472
0.07713052
0.07869328
0.08025137
0.08180306
0.08334658
0.08488008
0.08640164
0.08790928
0.08940095
0.09087454
0.09232793
0.09375892
0.09516532
0.09654491
0.09789549
0.09921490
0.10050100
0.10175175
0.10296518
0.10413947
0.10527292
0.10636402
0.10741146
0.10841414
0.10937123
0.11028213
0.11114655
0.11196447
0.11273617
0.11346224
0.11414354
0.11478124
0.11537676
0.11593178
0.11644820
0.11692811
0.11737379
0.11778763
0.11817214
0.11852989
0.11886349
0.11917555
0.11946865
0.11974533
0.12000803
0.12025912
0.12050084
0.12073530
0.12096448
0.12119022
0.12141418
0.12163792
0.12186280
0.12209008
0.12232086
0.12255611
0.12279667
0.12304328
0.12329658
0.12355709
0.12382526
0.12410145
0.12438598
0.12467908
0.12498093
0.12529167
0.12561140
0.12594018
0.12627805
0.12662502
0.12698108
0.12734618
0.12772031
0.12810339
0.12849537
0.12889619
0.12930577
0.12972406
0.13015098
0.13058648
0.13103049
0.13148296
0.13194386
0.13241314
0.13289078
0.13337677
0.13387109
0.13437375
0.13488477
0.13540415
0.13593193
0.13646816
0.13701289
0.13756617
0.13812807
0.13869867
0.13927806
0.13986633
0.14046358
0.14106994
0.14168551
0.14231043
0.14294483
0.14358887
0.14424269
0.14490646
0.14558035
0.14626455
0.14695923
0.14766460
0.14838087
0.14910825
0.14984697
0.15059727
0.15135940
0.15213361
0.15292018
0.15371939
0.15453153
0.15535692
0.15619588
0.15704874
0.15791585
0.15879758
0.15969431
0.16060643
0.16153436
0.16247853
0.16343938
0.16441738
0.16541300
0.16642677
0.16745919
0.16851082
0.16958222
0.17067400
0.17178677
0.17292119
0.17407793
0.17525772
0.17646129
0.17768942
0.17894294
0.18022270
0.18152960
0.18286459
0.18422865
0.18562282
0.18704820
0.18850593
0.18999722
0.19152333
0.19308558
0.19468540
0.19632424
0.19800366
0.19972531
0.20149092
0.20330234
0.20516150
0.20707048
0.20903147
0.21104681
0.21311899
0.21525067
0.21744467
0.21970402
0.22203196
0.22443192
0.22690763
0.22946304
0.23210243
0.23483036
0.23765179
0.24057206
0.24359694
0.24673269
0.24998612
0.25336466
0.25687639
0.26053018
0.26433574
0.26830375
0.27244600
0.27677548
0.28130661
0.28605542
0.29103979
0.29627973
0.30179772
0.30761913
0.31377271
0.32029116
0.32721188
0.33457783
0.34243860
0.35085178
0.35988464
0.36961623
0.38014010
0.39156778
0.40403331
0.41769909
0.43276356
0.44947113
0.46812500
0.48910336
0.51288037
0.54005181
0.57135593
0.60762602
0.64937434
0.69435011
0.72341053
0.63876560
0.44273497
0.28031666
0.17245715
0.10540226
0.06454708
0.03973695
0.02462042
0.01535507
0.00963725
0.00608438
0.00386221
0.00246382
0.00157886
0.00101595
0.00065619
0.00042529
0.00027650
0.00018029
0.00011787
0.00007726
0.00005075
0.00003341
0.00002204
0.00001456
0.00000964
0.00000639
0.00000424
0.00000282
0.00000188
0.00000125
0.00000084
0.00000056
0.00000037
0.00000025
0.00000017
0.00000011
0.00000008
0.00000005
0.00000003
0.00000002
0.00000002
0.00000001
0.00000001
0.00000000
0.00000000
0.00000000
0.00000000
0.00000000
0.00000000
0.00000000
0.00000000
0.00000000
0.00000000
0.00000000
0.00000000
0.00000000
0.00000000
0.00000000
0.00000000
0.00000000
0.00000000
0.00000000
0.00000000
0.00000000
0.00000000
0.00000000
0.00000000
0.00000000
0.00000000
0.00000000
0.00004574
0.00009105
0.00013726
0.00018428
0.00023239
0.00028187
0.00033300
0.00038607
0.00044136
0.00049918
0.00055982
0.00062359
0.00069081
0.00076180
0.00083689
0.00091643
0.00100076
0.00109024
0.00118524
0.00128615
0.00139334
0.00150723
0.00162822
0.00175674
0.00189322
0.00203812
0.00219188
0.00235498
0.00252790
0.00271113
0.00290517
0.00311055
0.00332777
0.00355738
0.00379993
0.00405595
0.00432602
0.00461069
0.00491055
0.00522618
0.00555815
0.00590707
0.00627352
0.00665810
0.00706140
0.00748402
0.00792656
0.00838960
0.00887372
0.00937952
0.00990757
0.01045843
0.01103266
0.01163080
0.01225339
0.01290095
0.01357397
0.01427295
0.01499834
0.01575061
0.01653016
0.01733741
0.01817273
0.01903647
0.01992897
0.02085050
0.02180136
0.02278176
0.02379192
0.02483201
0.02590216
0.02700249
0.02813307
0.02929393
0.03048506
0.03170644
0.03295798
0.03423957
0.03555106
0.03689227
0.03826297
0.03966288
0.04109172
0.04254914
0.04403476
0.04554816
0.04708889
0.04865645
0.05025032
0.05186992
0.05351464
0.05518385
0.05687685
0.05859293
0.06033132
0.06209122
0.06387179
0.06567215
0.06749136
0.06932846
0.07118242
0.07305220
0.07493666
0.07683465
0.07874494
0.08066625
0.08259725
0.08453652
0.08648261
0.08843396
0.09038897
0.09234594
0.09430309
0.09625856
0.09821041
0.10015661
0.10209503
0.10402345
0.10593957
0.10784100
0.10972526
0.11158979
0.11343197
0.11524912
0.11703849
0.11879733
0.12052284
0.12221227
0.12386285
0.12547190
0.12703682
0.12855512
0.13002446
0.13144268
0.13280786
0.13411829
0.13537256
0.13656958
0.13770857
0.13878912
0.13981118
0.14077509
0.14168155
0.14253166
0.14332685
0.14406893
0.14476001
0.14540248
0.14599901
0.14655245
0.14706585
0.14754237
0.14798528
0.14839787
0.14878345
0.14914527
0.14948654
0.14981036
0.15011970
0.15041738
0.15070605
0.15098822
0.15126616
0.15154198
0.15181762
0.15209478
0.15237502
0.15265971
0.15295006
0.15324711
0.15355178
0.15386484
0.15418694
0.15451863
0.15486037
0.15521252
0.15557536
0.15594914
0.15633400
0.15673007
0.15713742
0.15755609
0.15798609
0.15842740
0.15887997
0.15934375
0.15981868
0.16030467
0.16080163
0.16130950
0.16182816
0.16235755
0.16289758
0.16344817
0.16400927
0.16458081
0.16516275
0.16575506
0.16635770
0.16697068
0.16759399
0.16822765
0.16887168
0.16952611
0.17019100
0.17086641
0.17155240
0.17224907
0.17295650
0.17367481
0.17440410
0.17514450
0.17589615
0.17665920
0.17743381
0.17822013
0.17901836
0.17982868
0.18065128
0.18148638
0.18233420
0.18319496
0.18406892
0.18495632
0.18585743
0.18677253
0.18770190
0.18864585
0.18960470
0.19057877
0.19156842
0.19257399
0.19359587
0.19463445
0.19569015
0.19676338
0.19785459
0.19896425
0.20009285
0.20124088
0.20240886
0.20359735
0.20480690
0.20603811
0.20729158
0.20856797
0.20986792
0.21119214
0.21254135
0.21391630
0.21531778
0.21674663
0.21820371
0.21968991
0.22120620
0.22275356
0.22433302
0.22594569
0.22759271
0.22927527
0.23099463
0.23275211
0.23454910
0.23638706
0.23826751
0.24019206
0.24216240
0.24418031
0.24624766
0.24836643
0.25053870
0.25276668
0.25505271
0.25739926
0.25980897
0.26228464
0.26482924
0.26744595
0.27013815
0.27290945
0.27576370
0.27870501
0.28173777
0.28486671
0.28809686
0.29143365
0.29488291
0.29845093
0.30214451
0.30597098
0.30993833
0.31405523
0.31833111
0.32277628
0.32740202
0.33222069
0.33724586
0.34249248
0.34797708
0.35371793
0.35973534
0.36605194
0.37269303
0.37968700
0.38706585
0.39486572
0.40312767
0.41189850
0.42123173
0.43118893
0.44184114
0.45327076
0.46557384
0.47886288
0.49327029
0.50895266
0.52609583
0.54492091
0.56569055
0.58871475
0.61435402
0.64301456
0.67511257
0.71089142
0.74951578
0.78449433
0.78214932
0.62574276
0.42862272
0.27682271
0.17493783
0.10973625
0.06875322
0.04315098
0.02716872
0.01717193
0.01089801
0.00694478
0.00444325
0.00285360
0.00183925
0.00118945
0.00077163
0.00050204
0.00032753
0.00021421
0.00014043
0.00009227
0.00006075
0.00004007
0.00002648
0.00001753
0.00001162
0.00000772
0.00000513
0.00000342
0.00000228
0.00000152
0.00000102
0.00000068
0.00000045
0.00000030
0.00000020
0.00000014
0.00000009
0.00000006
0.00000004
0.00000003
0.00000002
0.00000001
0.00000001
0.00000001
0.00000000
0.00000000
0.00000000
0.00000000
0.00000000
0.00000000
0.00000000
0.00000000
0.00000000
0.00000000
0.00000000
0.00000000
0.00000000
0.00000000
0.00000000
0.00000000
0.00000000
0.00000000
0.00000000
0.00000000
0.00000000
0.00000000
0.00000000
0.00000000
0.00000000
0.00000000
0.00005478
0.00010904
0.00016438
0.00022069
0.00027831
0.00033757
0.00039881
0.00046236
0.00052858
0.00059782
0.00067045
0.00074682
0.00082733
0.00091235
0.00100228
0.00109754
0.00119853
0.00130569
0.00141947
0.00154031
0.00166869
0.00180508
0.00194998
0.00210390
0.00226735
0.00244087
0.00262502
0.00282035
0.00302743
0.00324687
0.00347926
0.00372521
0.00398536
0.00426034
0.00455080
0.00485741
0.00518084
0.00552176
0.00588086
0.00625885
0.00665641
0.00707427
0.00751312
0.00797367
0.00845665
0.00896277
0.00949272
0.01004724
0.01062700
0.01123272
0.01186508
0.01252476
0.01321242
0.01392872
0.01467429
0.01544975
0.01625571
0.01709275
0.01796142
0.01886227
0.01979579
0.02076247
0.02176277
0.02279710
0.02386585
0.02496938
0.02610801
0.02728202
0.02849165
0.02973713
0.03101860
0.03233620
0.03369002
0.03508008
0.03650640
0.03796893
0.03946757
0.04100219
0.04257262
0.04417862
0.04581993
0.04749622
0.04920714
0.05095229
0.05273120
0.05454337
0.05638828
0.05826531
0.06017385
0.06211322
0.06408268
0.06608147
0.06810877
0.07016372
0.07224542
0.07435291
0.07648518
0.07864119
0.08081983
0.08301995
0.08524033
0.08747972
0.08973679
0.09201014
0.09429834
0.09659987
0.09891312
0.10123645
0.10356809
0.10590622
0.10824892
0.11059419
0.11293989
0.11528384
0.11762371
0.11995708
0.12228141
0.12459408
0.12689231
0.12917325
0.13143394
0.13367131
0.13588221
0.13806341
0.14021161
0.14232347
0.14439563
0.14642472
0.14840741
0.15034041
0.15222056
0.15404480
0.15581025
0.15751428
0.15915447
0.16072872
0.16223527
0.16367274
0.16504013
0.16633689
0.16756294
0.16871862
0.16980478
0.17082271
0.17177414
0.17266125
0.17348660
0.17425310
0.17496398
0.17562274
0.17623308
0.17679886
0.17732406
0.17781268
0.17826876
0.17869627
0.17909908
0.17948098
0.17984555
0.18019621
0.18053619
0.18086847
0.18119583
0.18152079
0.18184566
0.18217250
0.18250317
0.18283930
0.18318231
0.18353346
0.18389382
0.18426430
0.18464568
0.18503859
0.18544356
0.18586102
0.18629131
0.18673468
0.18719132
0.18766137
0.18814490
0.18864196
0.18915254
0.18967663
0.19021416
0.19076506
0.19132924
0.19190661
0.19249707
0.19310049
0.19371678
0.19434583
0.19498754
0.19564182
0.19630858
0.19698776
0.19767929
0.19838314
0.19909928
0.19982768
0.20056835
0.20132130
0.20208656
0.20286416
0.20365417
0.20445666
0.20527169
0.20609939
0.20693984
0.20779317
0.20865952
0.20953904
0.21043187
0.21133820
0.21225820
0.21319208
0.21414003
0.21510229
0.21607907
0.21707063
0.21807723
0.21909912
0.22013659
0.22118995
0.22225949
0.22334554
0.22444844
0.22556854
0.22670621
0.22786183
0.22903580
0.23022854
0.23144050
0.23267212
0.23392389
0.23519631
0.23648988
0.23780517
0.23914272
0.24050312
0.24188698
0.24329494
0.24472765
0.24618580
0.24767009
0.24918126
0.25072009
0.25228738
0.25388398
0.25551074
0.25716860
0.25885851
0.26058146
0.26233851
0.26413076
0.26595934
0.26782546
0.26973039
0.27167544
0.27366199
0.27569150
0.27776549
0.27988555
0.28205337
0.28427071
0.28653941
0.28886141
0.29123875
0.29367359
0.29616817
0.29872488
0.30134625
0.30403494
0.30679377
0.30962574
0.31253404
0.31552206
0.31859339
0.32175187
0.32500160
0.32834693
0.33179251
0.33534329
0.33900458
0.34278205
0.34668177
0.35071026
0.35487453
0.35918215
0.36364127
0.36826071
0.37305006
0.37801971
0.38318098
0.38854620
0.39412886
0.39994371
0.40600692
0.41233629
0.41895141
0.42587392
0.43312780
0.44073971
0.44873934
0.45715992
0.46603870
0.47541762
0.48534400
0.49587140
0.50706060
0.51898078
0.53171086
0.54534105
0.55997472
0.57573040
0.59274405
0.61117131
0.63118940
0.65299769
0.67681489
0.70286893
0.73136794
0.76240301
0.79551723
0.82753402
0.84176002
0.76966166
0.57874717
0.39599267
0.26066605
0.16866827
0.10827204
0.06926424
0.04427116
0.02831520
0.01813906
0.01164530
0.00749485
0.00483632
0.00312914
0.00202992
0.00132022
0.00086076
0.00056252
0.00036844
0.00024183
0.00015905
0.00010480
0.00006918
0.00004574
0.00003029
0.00002009
0.00001335
0.00000888
0.00000591
0.00000394
0.00000263
0.00000176
0.00000118
0.00000079
0.00000053
0.00000035
0.00000024
0.00000016
0.00000011
0.00000007
0.00000005
0.00000003
0.00000002
0.00000001
0.00000001
0.00000001
0.00000000
0.00000000
0.00000000
0.00000000
0.00000000
0.00000000
0.00000000
0.00000000
0.00000000
0.00000000
0.00000000
0.00000000
0.00000000
0.00000000
0.00000000
0.00000000
0.00000000
0.00000000
0.00000000
0.00000000
0.00000000
0.00000000
0.00000000
0.00000000
0.00000000
0.00000000
0.00006376
0.00012692
0.00019133
0.00025687
0.00032394
0.00039291
0.00046419
0.00053816
0.00061524
0.00069583
0.00078036
0.00086925
0.00096295
0.00106191
0.00116659
0.00127746
0.00139501
0.00151974
0.00165216
0.00179281
0.00194223
0.00210098
0.00226963
0.00244878
0.00263902
0.00284099
0.00305532
0.00328266
0.00352369
0.00377909
0.00404957
0.00433583
0.00463861
0.00495866
0.00529673
0.00565359
0.00603002
0.00642682
0.00684477
0.00728470
0.00774742
0.00823375
0.00874451
0.00928054
0.00984266
0.01043171
0.01104851
0.01169388
0.01236864
0.01307361
0.01380958
0.01457733
0.01537766
0.01621131
0.01707903
0.01798153
0.01891953
0.01989369
0.02090466
0.02195307
0.02303951
0.02416453
0.02532867
0.02653241
0.02777621
0.02906047
0.03038558
0.03175186
0.03315959
0.03460902
0.03610034
0.03763370
0.03920919
0.04082687
0.04248672
0.04418871
0.04593271
0.04771858
0.04954611
0.05141504
0.05332504
0.05527576
0.05726677
0.05929760
0.06136772
0.06347656
0.06562349
0.06780781
0.07002881
0.07228568
0.07457759
0.07690365
0.07926292
0.08165439
0.08407702
0.08652971
0.08901129
0.09152055
0.09405622
0.09661696
0.09920138
0.10180802
0.10443535
0.10708177
0.10974562
0.11242514
0.11511851
0.11782379
0.12053898
0.12326198
0.12599056
0.12872241
0.13145510
0.13418608
0.13691266
0.13963206
0.14234134
0.14503744
0.14771717
0.15037721
0.15301410
0.15562428
0.15820407
0.16074969
0.16325727
0.16572289
0.16814259
0.17051239
0.17282834
0.17508656
0.17728326
0.17941479
0.18147771
0.18346884
0.18538525
0.18722441
0.18898415
0.19066276
0.19225900
0.19377216
0.19520205
0.19654905
0.19781411
0.19899871
0.20010490
0.20113521
0.20209269
0.20298077
0.20380331
0.20456443
0.20526856
0.20592027
0.20652429
0.20708539
0.20760835
0.20809787
0.20855857
0.20899488
0.20941107
0.20981116
0.21019895
0.21057794
0.21095139
0.21132224
0.21169319
0.21206663
0.21244472
0.21282933
0.21322213
0.21362455
0.21403780
0.21446295
0.21490085
0.21535225
0.21581773
0.21629777
0.21679275
0.21730296
0.21782861
0.21836983
0.21892671
0.21949929
0.22008757
0.22069149
0.22131100
0.22194600
0.22259638
0.22326202
0.22394280
0.22463857
0.22534922
0.22607460
0.22681461
0.22756912
0.22833805
0.22912130
0.22991880
0.23073049
0.23155635
0.23239635
0.23325047
0.23411875
0.23500119
0.23589785
0.23680879
0.23773409
0.23867382
0.23962811
0.24059707
0.24158084
0.24257957
0.24359341
0.24462256
0.24566720
0.24672754
0.24780380
0.24889621
0.25000502
0.25113050
0.25227291
0.25343255
0.25460971
0.25580473
0.25701793
0.25824965
0.25950027
0.26077015
0.26205971
0.26336934
0.26469948
0.26605059
0.26742314
0.26881761
0.27023453
0.27167443
0.27313787
0.27462544
0.27613775
0.27767543
0.27923913
0.28082955
0.28244740
0.28409341
0.28576834
0.28747300
0.28920822
0.29097486
0.29277381
0.29460603
0.29647248
0.29837419
0.30031223
0.30228772
0.30430182
0.30635577
0.30845085
0.31058839
0.31276979
0.31499654
0.31727017
0.31959229
0.32196461
0.32438890
0.32686703
0.32940094
0.33199269
0.33464442
0.33735839
0.34013698
0.34298266
0.34589808
0.34888599
0.35194932
0.35509117
0.35831483
0.36162378
0.36502173
0.36851262
0.37210063
0.37579022
0.37958614
0.38349343
0.38751746
0.39166396
0.39593904
0.40034924
0.40490153
0.40960342
0.41446296
0.41948882
0.42469034
0.43007765
0.43566168
0.44145431
0.44746843
0.45371806
0.46021849
0.46698639
0.47403997
0.48139921
0.48908598
0.49712438
0.50554097
0.51436511
0.52362935
0.53336985
0.54362686
0.55444527
0.56587522
0.57797270
0.59080035
0.60442814
0.61893414
0.63440534
0.65093820
0.66863905
0.68762392
0.70801732
0.72994855
0.75354246