# vtk DataFile Version 3.0
Concentration output
ASCII
DATASET STRUCTURED_POINTS
DIMENSIONS 398 98 1
ORIGIN 0 0 0
SPACING 0.03 0.03 1.0
POINT_DATA 39004
SCALARS concentration float 1
LOOKUP_TABLE default
0.00002925
0.00005808
0.00008722
0.00011649
0.00014591
0.00017554
0.00020541
0.00023556
0.00026604
0.00029687
0.00032811
0.00035980
0.00039197
0.00042466
0.00045791
0.00049176
0.00052625
0.00056143
0.00059732
0.00063397
0.00067142
0.00070970
0.00074886
0.00078892
0.00082994
0.00087194
0.00091496
0.00095904
0.00100422
0.00105053
0.00109801
0.00114669
0.00119661
0.00124781
0.00130031
0.00135416
0.00140938
0.00146600
0.00152407
0.00158361
0.00164466
0.00170724
0.00177139
0.00183714
0.00190451
0.00197354
0.00204425
0.00211667
0.00219083
0.00226676
0.00234448
0.00242401
0.00250539
0.00258863
0.00267376
0.00276081
0.00284979
0.00294072
0.00303363
0.00312854
0.00322547
0.00332443
0.00342544
0.00352853
0.00363370
0.00374098
0.00385037
0.00396190
0.00407558
0.00419141
0.00430942
0.00442962
0.00455201
0.00467660
0.00480341
0.00493244
0.00506371
0.00519721
0.00533296
0.00547096
0.00561121
0.00575372
0.00589850
0.00604554
0.00619484
0.00634641
0.00650024
0.00665633
0.00681469
0.00697530
0.00713815
0.00730325
0.00747059
0.00764015
0.00781192
0.00798589
0.00816206
0.00834039
0.00852087
0.00870349
0.00888821
0.00907502
0.00926389
0.00945479
0.00964768
0.00984253
0.01003931
0.01023796
0.01043844
0.01064071
0.01084471
0.01105038
0.01125766
0.01146649
0.01167680
0.01188850
0.01210152
0.01231578
0.01253117
0.01274761
0.01296498
0.01318319
0.01340211
0.01362163
0.01384161
0.01406192
0.01428243
0.01450298
0.01472342
0.01494360
0.01516335
0.01538250
0.01560087
0.01581829
0.01603457
0.01624952
0.01646295
0.01667466
0.01688446
0.01709216
0.01729754
0.01750042
0.01770060
0.01789788
0.01809208
0.01828300
0.01847046
0.01865431
0.01883436
0.01901046
0.01918246
0.01935024
0.01951367
0.01967263
0.01982703
0.01997680
0.02012186
0.02026217
0.02039768
0.02052839
0.02065428
0.02077537
0.02089170
0.02100330
0.02111023
0.02121257
0.02131039
0.02140381
0.02149292
0.02157785
0.02165871
0.02173566
0.02180882
0.02187835
0.02194438
0.02200709
0.02206662
0.02212312
0.02217675
0.02222768
0.02227603
0.02232198
0.02236566
0.02240721
0.02244678
0.02248449
0.02252048
0.02255487
0.02258777
0.02261929
0.02264955
0.02267864
0.02270667
0.02273371
0.02275986
0.02278519
0.02280978
0.02283370
0.02285701
0.02287977
0.02290205
0.02292389
0.02294534
0.02296645
0.02298725
0.02300779
0.02302810
0.02304821
0.02306816
0.02308797
0.02310765
0.02312725
0.02314677
0.02316624
0.02318567
0.02320507
0.02322447
0.02324386
0.02326327
0.02328270
0.02330217
0.02332167
0.02334122
0.02336083
0.02338049
0.02340022
0.02342002
0.02343990
0.02345985
0.02347988
0.02350000
0.02352022
0.02354052
0.02356092
0.02358142
0.02360202
0.02362273
0.02364355
0.02366447
0.02368550
0.02370665
0.02372792
0.02374930
0.02377079
0.02379241
0.02381415
0.02383601
0.02385799
0.02388010
0.02390233
0.02392468
0.02394716
0.02396977
0.02399250
0.02401537
0.02403836
0.02406149
0.02408475
0.02410815
0.02413168
0.02415535
0.02417916
0.02420312
0.02422723
0.02425148
0.02427588
0.02430044
0.02432516
0.02435003
0.02437507
0.02440027
0.02442563
0.02445117
0.02447687
0.02450275
0.02452880
0.02455503
0.02458143
0.02460801
0.02463477
0.02466171
0.02468883
0.02471613
0.02474362
0.02477129
0.02479914
0.02482717
0.02485539
0.02488380
0.02491239
0.02494118
0.02497015
0.02499931
0.02502866
0.02505820
0.02508793
0.02511786
0.02514797
0.02517826
0.02520875
0.02523941
0.02527026
0.02530127
0.02533246
0.02536380
0.02539530
0.02542694
0.02545871
0.02549060
0.02552258
0.02555465
0.02558678
0.02561894
0.02565112
0.02568329
0.02571540
0.02574742
0.02577931
0.02581103
0.02584253
0.02587374
0.02590460
0.02593504
0.02596498
0.02599434
0.02602303
0.02605092
0.02607791
0.02610388
0.02612866
0.02615212
0.02617407
0.02619434
0.02621271
0.02622897
0.02624286
0.02625412
0.02626247
0.02626759
0.02626914
0.02626676
0.02626005
0.02624859
0.02623193
0.02620958
0.02618102
0.02614570
0.02610304
0.02605243
0.02599319
0.02592466
0.02584611
0.02575679
0.02565592
0.02554269
0.02541626
0.02527579
0.02512040
0.02494920
0.02476129
0.02455577
0.02433174
0.02408832
0.02382464
0.02353984
0.02323310
0.02290366
0.02255077
0.02217376
0.02177203
0.02134503
0.02089230
0.02041345
0.01990822
0.01937640
0.01881791
0.01823276
0.01762110
0.01698314
0.01631925
0.01562989
0.01491563
0.01417717
0.01341529
0.01263090
0.01182499
0.01099868
0.01015316
0.00928970
0.00840966
0.00751450
0.00660570
0.00568484
0.00475354
0.00381347
0.00286633
0.00191386
0.00096528
0.00005846
0.00011610
0.00017436
0.00023285
0.00029167
0.00035090
0.00041061
0.00047088
0.00053180
0.00059344
0.00065590
0.00071923
0.00078353
0.00084888
0.00091535
0.00098302
0.00105198
0.00112229
0.00119404
0.00126730
0.00134216
0.00141868
0.00149695
0.00157705
0.00165903
0.00174299
0.00182899
0.00191711
0.00200742
0.00210000
0.00219490
0.00229222
0.00239201
0.00249435
0.00259930
0.00270694
0.00281732
0.00293052
0.00304660
0.00316562
0.00328766
0.00341276
0.00354099
0.00367242
0.00380709
0.00394508
0.00408643
0.00423120
0.00437944
0.00453122
0.00468658
0.00484557
0.00500824
0.00517464
0.00534482
0.00551882
0.00569669
0.00587847
0.00606420
0.00625392
0.00644768
0.00664550
0.00684743
0.00705350
0.00726374
0.00747818
0.00769687
0.00791981
0.00814705
0.00837861
0.00861452
0.00885479
0.00909944
0.00934851
0.00960201
0.00985995
0.01012235
0.01038923
0.01066060
0.01093646
0.01121684
0.01150173
0.01179114
0.01208508
0.01238355
0.01268654
0.01299407
0.01330611
0.01362268
0.01394375
0.01426932
0.01459937
0.01493390
0.01527287
0.01561627
0.01596407
0.01631625
0.01667277
0.01703359
0.01739868
0.01776799
0.01814147
0.01851907
0.01890073
0.01928637
0.01967594
0.02006936
0.02046653
0.02086738
0.02127180
0.02167968
0.02209091
0.02250537
0.02292293
0.02334345
0.02376676
0.02419272
0.02462116
0.02505187
0.02548469
0.02591939
0.02635576
0.02679356
0.02723257
0.02767252
0.02811314
0.02855416
0.02899527
0.02943619
0.02987659
0.03031613
0.03075449
0.03119132
0.03162624
0.03205889
0.03248890
0.03291588
0.03333945
0.03375920
0.03417474
0.03458567
0.03499160
0.03539214
0.03578689
0.03617547
0.03655751
0.03693264
0.03730053
0.03766084
0.03801324
0.03835746
0.03869322
0.03902027
0.03933839
0.03964739
0.03994710
0.04023739
0.04051817
0.04078935
0.04105090
0.04130282
0.04154512
0.04177788
0.04200117
0.04221511
0.04241985
0.04261556
0.04280243
0.04298069
0.04315056
0.04331230
0.04346619
0.04361250
0.04375153
0.04388358
0.04400896
0.04412797
0.04424093
0.04434816
0.04444994
0.04454661
0.04463844
0.04472574
0.04480879
0.04488786
0.04496323
0.04503514
0.04510385
0.04516959
0.04523259
0.04529305
0.04535118
0.04540717
0.04546120
0.04551344
0.04556405
0.04561318
0.04566097
0.04570755
0.04575303
0.04579754
0.04584117
0.04588403
0.04592620
0.04596777
0.04600881
0.04604939
0.04608958
0.04612943
0.04616900
0.04620834
0.04624750
0.04628651
0.04632540
0.04636423
0.04640300
0.04644176
0.04648052
0.04651930
0.04655813
0.04659703
0.04663601
0.04667508
0.04671425
0.04675355
0.04679297
0.04683254
0.04687225
0.04691212
0.04695216
0.04699236
0.04703275
0.04707332
0.04711409
0.04715505
0.04719622
0.04723759
0.04727918
0.04732099
0.04736302
0.04740527
0.04744776
0.04749048
0.04753343
0.04757662
0.04762005
0.04766373
0.04770765
0.04775182
0.04779623
0.04784089
0.04788581
0.04793098
0.04797640
0.04802209
0.04806803
0.04811423
0.04816070
0.04820744
0.04825446
0.04830175
0.04834932
0.04839718
0.04844534
0.04849379
0.04854254
0.04859160
0.04864097
0.04869066
0.04874067
0.04879101
0.04884168
0.04889268
0.04894403
0.04899572
0.04904776
0.04910015
0.04915289
0.04920598
0.04925943
0.04931324
0.04936741
0.04942194
0.04947684
0.04953210
0.04958773
0.04964372
0.04970009
0.04975683
0.04981394
0.04987143
0.04992929
0.04998753
0.05004615
0.05010515
0.05016452
0.05022428
0.05028441
0.05034492
0.05040579
0.05046703
0.05052862
0.05059056
0.05065284
0.05071543
0.05077833
0.05084151
0.05090495
0.05096862
0.05103250
0.05109653
0.05116069
0.05122493
0.05128919
0.05135341
0.05141754
0.05148148
0.05154518
0.05160852
0.05167141
0.05173373
0.05179536
0.05185615
0.05191595
0.05197459
0.05203187
0.05208758
0.05214149
0.05219334
0.05224285
0.05228970
0.05233357
0.05237406
0.05241077
0.05244326
0.05247103
0.05249357
0.05251028
0.05252055
0.05252370
0.05251900
0.05250566
0.05248285
0.05244965
0.05240509
0.05234814
0.05227769
0.05219259
0.05209159
0.05197338
0.05183660
0.05167980
0.05150149
0.05130010
0.05107402
0.05082157
0.05054105
0.05023070
0.04988874
0.04951339
0.04910282
0.04865526
0.04816891
0.04764203
0.04707291
0.04645993
0.04580152
0.04509621
0.04434265
0.04353962
0.04268604
0.04178097
0.04082366
0.03981353
0.03875021
0.03763353
0.03646351
0.03524042
0.03396473
0.03263715
0.03125860
0.02983024
0.02835344
0.02682979
0.02526110
0.02364939
0.02199684
0.02030585
0.01857899
0.01681897
0.01502869
0.01321113
0.01136946
0.00950690
0.00762679
0.00573255
0.00382765
0.00193052
0.00008762
0.00017401
0.00026132
0.00034899
0.00043714
0.00052590
0.00061539
0.00070573
0.00079703
0.00088942
0.00098302
0.00107794
0.00117431
0.00127225
0.00137187
0.00147329
0.00157664
0.00168202
0.00178955
0.00189936
0.00201155
0.00212624
0.00224354
0.00236358
0.00248646
0.00261228
0.00274118
0.00287325
0.00300860
0.00314734
0.00328959
0.00343544
0.00358500
0.00373838
0.00389568
0.00405699
0.00422243
0.00439209
0.00456606
0.00474445
0.00492734
0.00511484
0.00530703
0.00550400
0.00570584
0.00591265
0.00612449
0.00634147
0.00656366
0.00679113
0.00702397
0.00726226
0.00750606
0.00775546
0.00801051
0.00827130
0.00853788
0.00881032
0.00908868
0.00937303
0.00966342
0.00995991
0.01026256
0.01057140
0.01088651
0.01120791
0.01153567
0.01186981
0.01221040
0.01255745
0.01291102
0.01327113
0.01363782
0.01401112
0.01439106
0.01477766
0.01517095
0.01557095
0.01597768
0.01639115
0.01681138
0.01723838
0.01767216
0.01811273
0.01856009
0.01901423
0.01947517
0.01994288
0.02041737
0.02089863
0.02138662
0.02188135
0.02238277
0.02289087
0.02340561
0.02392695
0.02445485
0.02498927
0.02553015
0.02607743
0.02663104
0.02719091
0.02775696
0.02832910
0.02890723
0.02949126
0.03008105
0.03067650
0.03127746
0.03188379
0.03249532
0.03311189
0.03373332
0.03435941
0.03498994
0.03562469
0.03626343
0.03690588
0.03755179
0.03820086
0.03885278
0.03950722
0.04016385
0.04082230
0.04148218
0.04214310
0.04280464
0.04346636
0.04412780
0.04478850
0.04544794
0.04610564
0.04676106
0.04741366
0.04806288
0.04870817
0.04934895
0.04998462
0.05061460
0.05123829
0.05185510
0.05246442
0.05306567
0.05365825
0.05424160
0.05481516
0.05537836
0.05593070
0.05647167
0.05700080
0.05751764
0.05802178
0.05851285
0.05899051
0.05945448
0.05990450
0.06034037
0.06076193
0.06116909
0.06156177
0.06193997
0.06230372
0.06265312
0.06298828
0.06330939
0.06361667
0.06391037
0.06419078
0.06445824
0.06471309
0.06495573
0.06518655
0.06540599
0.06561449
0.06581250
0.06600048
0.06617890
0.06634823
0.06650894
0.06666150
0.06680635
0.06694396
0.06707476
0.06719918
0.06731764
0.06743054
0.06753826
0.06764118
0.06773964
0.06783399
0.06792453
0.06801159
0.06809544
0.06817636
0.06825459
0.06833038
0.06840395
0.06847551
0.06854526
0.06861337
0.06868002
0.06874536
0.06880954
0.06887269
0.06893493
0.06899639
0.06905717
0.06911735
0.06917704
0.06923630
0.06929522
0.06935386
0.06941229
0.06947055
0.06952869
0.06958677
0.06964482
0.06970287
0.06976097
0.06981914
0.06987740
0.06993578
0.06999430
0.07005299
0.07011185
0.07017090
0.07023017
0.07028965
0.07034937
0.07040934
0.07046956
0.07053005
0.07059082
0.07065188
0.07071323
0.07077488
0.07083685
0.07089913
0.07096174
0.07102469
0.07108797
0.07115159
0.07121556
0.07127989
0.07134457
0.07140961
0.07147502
0.07154079
0.07160693
0.07167344
0.07174032
0.07180758
0.07187522
0.07194324
0.07201165
0.07208044
0.07214963
0.07221921
0.07228920
0.07235959
0.07243040
0.07250163
0.07257329
0.07264538
0.07271792
0.07279090
0.07286434
0.07293825
0.07301264
0.07308750
0.07316286
0.07323871
0.07331506
0.07339192
0.07346930
0.07354719
0.07362561
0.07370455
0.07378402
0.07386403
0.07394457
0.07402566
0.07410728
0.07418945
0.07427216
0.07435542
0.07443923
0.07452359
0.07460851
0.07469398
0.07478002
0.07486661
0.07495377
0.07504149
0.07512978
0.07521863
0.07530805
0.07539802
0.07548856
0.07557964
0.07567127
0.07576343
0.07585610
0.07594928
0.07604293
0.07613704
0.07623157
0.07632649
0.07642175
0.07651732
0.07661312
0.07670912
0.07680523
0.07690137
0.07699746
0.07709340
0.07718909
0.07728438
0.07737915
0.07747325
0.07756650
0.07765871
0.07774967
0.07783915
0.07792689
0.07801260
0.07809598
0.07817665
0.07825426
0.07832836
0.07839850
0.07846417
0.07852481
0.07857980
0.07862848
0.07867012
0.07870393
0.07872904
0.07874452
0.07874937
0.07874248
0.07872269
0.07868872
0.07863922
0.07857274
0.07848773
0.07838253
0.07825540
0.07810448
0.07792782
0.07772335
0.07748892
0.07722228
0.07692108
0.07658289
0.07620521
0.07578546
0.07532102
0.07480920
0.07424732
0.07363266
0.07296252
0.07223421
0.07144511
0.07059265
0.06967438
0.06868795
0.06763115
0.06650194
0.06529848
0.06401914
0.06266252
0.06122748
0.05971315
0.05811898
0.05644468
0.05469033
0.05285629
0.05094330
0.04895240
0.04688500
0.04474283
0.04252795
0.04024276
0.03788998
0.03547261
0.03299397
0.03045764
0.02786749
0.02522759
0.02254227
0.01981605
0.01705363
0.01425989
0.01143982
0.00859855
0.00574129
0.00289570
0.00011669
0.00023174
0.00034801
0.00046477
0.00058217
0.00070038
0.00081956
0.00093986
0.00106146
0.00118450
0.00130915
0.00143556
0.00156391
0.00169434
0.00182701
0.00196208
0.00209971
0.00224005
0.00238326
0.00252950
0.00267891
0.00283165
0.00298787
0.00314773
0.00331137
0.00347895
0.00365061
0.00382649
0.00400675
0.00419153
0.00438096
0.00457520
0.00477438
0.00497865
0.00518813
0.00540297
0.00562329
0.00584923
0.00608092
0.00631849
0.00656207
0.00681177
0.00706772
0.00733004
0.00759886
0.00787427
0.00815640
0.00844537
0.00874127
0.00904421
0.00935431
0.00967165
0.00999634
0.01032848
0.01066816
0.01101547
0.01137050
0.01173333
0.01210405
0.01248274
0.01286948
0.01326435
0.01366741
0.01407873
0.01449838
0.01492643
0.01536293
0.01580795
0.01626154
0.01672376
0.01719464
0.01767425
0.01816261
0.01865979
0.01916580
0.01968069
0.02020449
0.02073723
0.02127893
0.02182961
0.02238931
0.02295802
0.02353576
0.02412255
0.02471838
0.02532327
0.02593719
0.02656016
0.02719215
0.02783315
0.02848315
0.02914211
0.02981000
0.03048679
0.03117243
0.03186688
0.03257008
0.03328196
0.03400246
0.03473150
0.03546899
0.03621483
0.03696891
0.03773113
0.03850135
0.03927943
0.04006522
0.04085855
0.04165926
0.04246713
0.04328197
0.04410355
0.04493162
0.04576593
0.04660620
0.04745212
0.04830338
0.04915963
0.05002052
0.05088566
0.05175464
0.05262703
0.05350237
0.05438018
0.05525995
0.05614115
0.05702323
0.05790560
0.05878765
0.05966875
0.06054825
0.06142547
0.06229971
0.06317024
0.06403633
0.06489722
0.06575215
0.06660032
0.06744096
0.06827326
0.06909642
0.06990965
0.07071214
0.07150313
0.07228182
0.07304748
0.07379936
0.07453676
0.07525901
0.07596547
0.07665555
0.07732868
0.07798437
0.07862217
0.07924167
0.07984254
0.08042451
0.08098736
0.08153094
0.08205518
0.08256005
0.08304561
0.08351196
0.08395928
0.08438780
0.08479782
0.08518967
0.08556375
0.08592050
0.08626039
0.08658394
0.08689170
0.08718424
0.08746214
0.08772603
0.08797651
0.08821422
0.08843979
0.08865384
0.08885700
0.08904989
0.08923310
0.08940722
0.08957284
0.08973050
0.08988075
0.09002410
0.09016104
0.09029204
0.09041757
0.09053803
0.09065385
0.09076539
0.09087303
0.09097710
0.09107792
0.09117578
0.09127097
0.09136374
0.09145435
0.09154300
0.09162992
0.09171529
0.09179930
0.09188210
0.09196386
0.09204471
0.09212477
0.09220418
0.09228303
0.09236141
0.09243943
0.09251717
0.09259468
0.09267205
0.09274933
0.09282657
0.09290382
0.09298113
0.09305853
0.09313606
0.09321375
0.09329163
0.09336972
0.09344805
0.09352664
0.09360550
0.09368466
0.09376413
0.09384392
0.09392406
0.09400455
0.09408540
0.09416664
0.09424827
0.09433029
0.09441274
0.09449560
0.09457890
0.09466263
0.09474682
0.09483145
0.09491656
0.09500213
0.09508817
0.09517469
0.09526170
0.09534919
0.09543717
0.09552564
0.09561461
0.09570408
0.09579406
0.09588453
0.09597552
0.09606703
0.09615905
0.09625161
0.09634469
0.09643831
0.09653249
0.09662721
0.09672251
0.09681838
0.09691483
0.09701188
0.09710954
0.09720781
0.09730672
0.09740626
0.09750644
0.09760729
0.09770880
0.09781098
0.09791385
0.09801740
0.09812165
0.09822660
0.09833225
0.09843861
0.09854569
0.09865347
0.09876198
0.09887121
0.09898116
0.09909183
0.09920324
0.09931537
0.09942824
0.09954185
0.09965620
0.09977128
0.09988712
0.10000370
0.10012102
0.10023909
0.10035791
0.10047747
0.10059777
0.10071879
0.10084054
0.10096298
0.10108611
0.10120991
0.10133434
0.10145937
0.10158496
0.10171106
0.10183763
0.10196459
0.10209188
0.10221941
0.10234710
0.10247484
0.10260251
0.10272998
0.10285710
0.10298371
0.10310963
0.10323465
0.10335855
0.10348106
0.10360193
0.10372082
0.10383741
0.10395131
0.10406211
0.10416933
0.10427248
0.10437099
0.10446425
0.10455158
0.10463224
0.10470541
0.10477022
0.10482570
0.10487079
0.10490436
0.10492515
0.10493183
0.10492295
0.10489695
0.10485214
0.10478671
0.10469874
0.10458616
0.10444678
0.10427826
0.10407813
0.10384378
0.10357247
0.10326133
0.10290735
0.10250739
0.10205822
0.10155649
0.10099876
0.10038153
0.09970120
0.09895419
0.09813685
0.09724557
0.09627676
0.09522690
0.09409258
0.09287047
0.09155744
0.09015054
0.08864703
0.08704444
0.08534058
0.08353358
0.08162191
0.07960441
0.07748032
0.07524929
0.07291139
0.07046712
0.06791746
0.06526382
0.06250806
0.05965251
0.05669993
0.05365353
0.05051692
0.04729414
0.04398961
0.04060814
0.03715485
0.03363521
0.03005499
0.02642022
0.02273717
0.01901235
0.01525242
0.01146423
0.00765473
0.00386076
0.00014564
0.00028923
0.00043436
0.00058008
0.00072661
0.00087415
0.00102290
0.00117305
0.00132481
0.00147838
0.00163396
0.00179174
0.00195193
0.00211472
0.00228030
0.00244889
0.00262067
0.00279583
0.00297457
0.00315709
0.00334357
0.00353421
0.00372919
0.00392871
0.00413296
0.00434211
0.00455636
0.00477588
0.00500086
0.00523148
0.00546792
0.00571036
0.00595896
0.00621390
0.00647536
0.00674350
0.00701849
0.00730049
0.00758967
0.00788618
0.00819019
0.00850185
0.00882131
0.00914872
0.00948422
0.00982798
0.01018011
0.01054077
0.01091009
0.01128820
0.01167524
0.01207132
0.01247658
0.01289113
0.01331509
0.01374858
0.01419170
0.01464457
0.01510728
0.01557994
0.01606265
0.01655549
0.01705857
0.01757196
0.01809575
0.01863002
0.01917484
0.01973030
0.02029645
0.02087337
0.02146112
0.02205975
0.02266932
0.02328988
0.02392148
0.02456416
0.02521797
0.02588294
0.02655910
0.02724648
0.02794510
0.02865499
0.02937616
0.03010862
0.03085239
0.03160745
0.03237381
0.03315146
0.03394038
0.03474057
0.03555199
0.03637461
0.03720839
0.03805329
0.03890926
0.03977624
0.04065415
0.04154293
0.04244248
0.04335270
0.04427350
0.04520475
0.04614631
0.04709805
0.04805981
0.04903142
0.05001268
0.05100340
0.05200335
0.05301229
0.05402997
0.05505611
0.05609040
0.05713252
0.05818213
0.05923886
0.06030230
0.06137205
0.06244764
0.06352860
0.06461443
0.06570458
0.06679849
0.06789555
0.06899515
0.07009660
0.07119924
0.07230231
0.07340508
0.07450674
0.07560649
0.07670347
0.07779682
0.07888562
0.07996896
0.08104589
0.08211545
0.08317665
0.08422851
0.08527003
0.08630019
0.08731800
0.08832246
0.08931258
0.09028739
0.09124594
0.09218731
0.09311060
0.09401496
0.09489959
0.09576373
0.09660668
0.09742780
0.09822651
0.09900231
0.09975477
0.10048353
0.10118833
0.10186897
0.10252534
0.10315742
0.10376526
0.10434900
0.10490885
0.10544511
0.10595813
0.10644836
0.10691627
0.10736243
0.10778744
0.10819194
0.10857663
0.10894222
0.10928945
0.10961911
0.10993196
0.11022880
0.11051042
0.11077762
0.11103117
0.11127186
0.11150044
0.11171765
0.11192422
0.11212085
0.11230820
0.11248693
0.11265765
0.11282097
0.11297743
0.11312759
0.11327194
0.11341096
0.11354511
0.11367480
0.11380044
0.11392240
0.11404103
0.11415665
0.11426956
0.11438004
0.11448836
0.11459476
0.11469946
0.11480266
0.11490455
0.11500532
0.11510511
0.11520408
0.11530236
0.11540007
0.11549733
0.11559423
0.11569086
0.11578731
0.11588365
0.11597995
0.11607626
0.11617265
0.11626916
0.11636583
0.11646270
0.11655980
0.11665718
0.11675485
0.11685283
0.11695117
0.11704986
0.11714895
0.11724843
0.11734834
0.11744869
0.11754949
0.11765076
0.11775252
0.11785477
0.11795754
0.11806082
0.11816465
0.11826902
0.11837394
0.11847943
0.11858550
0.11869214
0.11879938
0.11890721
0.11901564
0.11912468
0.11923433
0.11934459
0.11945547
0.11956697
0.11967909
0.11979185
0.11990524
0.12001927
0.12013394
0.12024927
0.12036525
0.12048191
0.12059924
0.12071726
0.12083598
0.12095541
0.12107556
0.12119646
0.12131810
0.12144051
0.12156369
0.12168766
0.12181244
0.12193803
0.12206445
0.12219171
0.12231981
0.12244877
0.12257859
0.12270928
0.12284084
0.12297329
0.12310662
0.12324084
0.12337595
0.12351196
0.12364886
0.12378667
0.12392538
0.12406499
0.12420552
0.12434695
0.12448930
0.12463257
0.12477676
0.12492187
0.12506790
0.12521486
0.12536274
0.12551153
0.12566124
0.12581184
0.12596334
0.12611571
0.12626892
0.12642296
0.12657778
0.12673335
0.12688962
0.12704653
0.12720401
0.12736199
0.12752037
0.12767906
0.12783794
0.12799688
0.12815574
0.12831435
0.12847253
0.12863008
0.12878677
0.12894234
0.12909651
0.12924897
0.12939938
0.12954734
0.12969244
0.12983420
0.12997211
0.13010559
0.13023401
0.13035668
0.13047283
0.13058162
0.13068214
0.13077338
0.13085424
0.13092352
0.13097991
0.13102199
0.13104823
0.13105694
0.13104633
0.13101445
0.13095920
0.13087834
0.13076945
0.13062997
0.13045715
0.13024809
0.12999969
0.12970870
0.12937169
0.12898506
0.12854506
0.12804777
0.12748912
0.12686494
0.12617090
0.12540261
0.12455558
0.12362528
0.12260716
0.12149668
0.12028933
0.11898068
0.11756643
0.11604242
0.11440470
0.11264955
0.11077354
0.10877354
0.10664681
0.10439099
0.10200415
0.09948484
0.09683210
0.09404547
0.09112506
0.08807150
0.08488601
0.08157035
0.07812688
0.07455851
0.07086871
0.06706150
0.06314142
0.05911353
0.05498338
0.05075697
0.04644075
0.04204155
0.03756658
0.03302341
0.02841989
0.02376413
0.01906448
0.01432951
0.00956789
0.00482569
0.00017444
0.00034644
0.00052026
0.00069481
0.00087032
0.00104704
0.00122521
0.00140506
0.00158683
0.00177078
0.00195712
0.00214611
0.00233798
0.00253297
0.00273130
0.00293323
0.00313898
0.00334879
0.00356288
0.00378150
0.00400486
0.00423321
0.00446676
0.00470574
0.00495038
0.00520090
0.00545752
0.00572046
0.00598994
0.00626618
0.00654938
0.00683976
0.00713753
0.00744290
0.00775607
0.00807725
0.00840662
0.00874440
0.00909078
0.00944594
0.00981007
0.01018337
0.01056602
0.01095818
0.01136005
0.01177180
0.01219358
0.01262558
0.01306795
0.01352085
0.01398444
0.01445887
0.01494429
0.01544084
0.01594866
0.01646789
0.01699867
0.01754111
0.01809536
0.01866152
0.01923971
0.01983005
0.02043264
0.02104759
0.02167500
0.02231497
0.02296758
0.02363292
0.02431109
0.02500215
0.02570618
0.02642325
0.02715344
0.02789679
0.02865337
0.02942323
0.03020642
0.03100298
0.03181295
0.03263638
0.03347327
0.03432367
0.03518759
0.03606505
0.03695605
0.03786060
0.03877869
0.03971033
0.04065548
0.04161413
0.04258626
0.04357182
0.04457077
0.04558306
0.04660863
0.04764741
0.04869932
0.04976426
0.05084214
0.05193284
0.05303624
0.05415219
0.05528054
0.05642112
0.05757374
0.05873820
0.05991428
0.06110174
0.06230032
0.06350973
0.06472966
0.06595979
0.06719976
0.06844918
0.06970765
0.07097472
0.07224994
0.07353278
0.07482272
0.07611919
0.07742158
0.07872926
0.08004155
0.08135773
0.08267706
0.08399873
0.08532193
0.08664578
0.08796939
0.08929179
0.09061203
0.09192908
0.09324189
0.09454938
0.09585045
0.09714396
0.09842874
0.09970362
0.10096741
0.10221890
0.10345687
0.10468012
0.10588745
0.10707764
0.10824954
0.10940198
0.11053385
0.11164406
0.11273158
0.11379543
0.11483468
0.11584848
0.11683604
0.11779666
0.11872973
0.11963471
0.12051116
0.12135875
0.12217723
0.12296647
0.12372643
0.12445716
0.12515883
0.12583170
0.12647610
0.12709249
0.12768137
0.12824334
0.12877907
0.12928930
0.12977479
0.13023639
0.13067497
0.13109144
0.13148672
0.13186177
0.13221754
0.13255499
0.13287508
0.13317876
0.13346697
0.13374062
0.13400063
0.13424784
0.13448312
0.13470727
0.13492108
0.13512528
0.13532061
0.13550772
0.13568728
0.13585988
0.13602611
0.13618650
0.13634156
0.13649178
0.13663759
0.13677942
0.13691764
0.13705264
0.13718473
0.13731424
0.13744145
0.13756663
0.13769002
0.13781186
0.13793235
0.13805168
0.13817003
0.13828755
0.13840441
0.13852071
0.13863660
0.13875218
0.13886754
0.13898277
0.13909796
0.13921317
0.13932848
0.13944393
0.13955957
0.13967546
0.13979164
0.13990813
0.14002497
0.14014220
0.14025984
0.14037792
0.14049645
0.14061546
0.14073497
0.14085501
0.14097558
0.14109670
0.14121841
0.14134070
0.14146359
0.14158711
0.14171126
0.14183607
0.14196153
0.14208767
0.14221449
0.14234201
0.14247022
0.14259915
0.14272880
0.14285917
0.14299026
0.14312209
0.14325466
0.14338797
0.14352202
0.14365682
0.14379238
0.14392870
0.14406579
0.14420365
0.14434230
0.14448173
0.14462198
0.14476303
0.14490492
0.14504764
0.14519123
0.14533569
0.14548103
0.14562729
0.14577446
0.14592257
0.14607164
0.14622167
0.14637269
0.14652470
0.14667772
0.14683176
0.14698683
0.14714293
0.14730008
0.14745828
0.14761753
0.14777784
0.14793921
0.14810166
0.14826516
0.14842975
0.14859540
0.14876213
0.14892994
0.14909883
0.14926880
0.14943986
0.14961201
0.14978525
0.14995958
0.15013500
0.15031151
0.15048911
0.15066779
0.15084753
0.15102833
0.15121016
0.15139300
0.15157682
0.15176157
0.15194721
0.15213368
0.15232091
0.15250883
0.15269733
0.15288633
0.15307569
0.15326528
0.15345495
0.15364452
0.15383379
0.15402256
0.15421057
0.15439755
0.15458321
0.15476720
0.15494916
0.15512867
0.15530528
0.15547847
0.15564769
0.15581233
0.15597170
0.15612506
0.15627157
0.15641033
0.15654035
0.15666054
0.15676968
0.15686649
0.15694952
0.15701723
0.15706792
0.15709976
0.15711074
0.15709873
0.15706139
0.15699622
0.15690054
0.15677146
0.15660591
0.15640060
0.15615205
0.15585657
0.15551024
0.15510895
0.15464839
0.15412403
0.15353118
0.15286496
0.15212031
0.15129206
0.15037490
0.14936343
0.14825219
0.14703568
0.14570842
0.14426497
0.14269999
0.14100826
0.13918478
0.13722474
0.13512367
0.13287739
0.13048214
0.12793459
0.12523189
0.12237170
0.11935226
0.11617241
0.11283160
0.10932995
0.10566824
0.10184791
0.09787113
0.09374072
0.08946020
0.08503375
0.08046622
0.07576308
0.07093044
0.06597497
0.06090389
0.05572495
0.05044638
0.04507686
0.03962547
0.03410162
0.02851509
0.02287589
0.01719429
0.01148072
0.00579045
0.00020307
0.00040330
0.00060565
0.00080884
0.00101316
0.00121888
0.00142628
0.00163565
0.00184726
0.00206139
0.00227832
0.00249832
0.00272168
0.00294866
0.00317955
0.00341462
0.00365414
0.00389838
0.00414761
0.00440210
0.00466212
0.00492794
0.00519982
0.00547803
0.00576281
0.00605445
0.00635319
0.00665928
0.00697299
0.00729456
0.00762424
0.00796228
0.00830892
0.00866441
0.00902897
0.00940286
0.00978629
0.01017951
0.01058273
0.01099618
0.01142008
0.01185465
0.01230010
0.01275663
0.01322446
0.01370378
0.01419479
0.01469769
0.01521267
0.01573991
0.01627959
0.01683189
0.01739698
0.01797503
0.01856621
0.01917067
0.01978857
0.02042006
0.02106528
0.02172438
0.02239748
0.02308473
0.02378624
0.02450215
0.02523256
0.02597759
0.02673735
0.02751193
0.02830144
0.02910597
0.02992560
0.03076042
0.03161050
0.03247592
0.03335675
0.03425305
0.03516487
0.03609226
0.03703528
0.03799396
0.03896834
0.03995845
0.04096432
0.04198595
0.04302337
0.04407657
0.04514556
0.04623033
0.04733086
0.04844713
0.04957910
0.05072674
0.05188999
0.05306881
0.05426311
0.05547282
0.05669785
0.05793810
0.05919344
0.06046375
0.06174889
0.06304870
0.06436299
0.06569158
0.06703425
0.06839076
0.06976088
0.07114431
0.07254075
0.07394989
0.07537138
0.07680482
0.07824981
0.07970591
0.08117265
0.08264951
0.08413597
0.08563143
0.08713529
0.08864688
0.09016550
0.09169043
0.09322086
0.09475598
0.09629492
0.09783675
0.09938052
0.10092522
0.10246980
0.10401316
0.10555417
0.10709163
0.10862433
0.11015101
0.11167037
0.11318109
0.11468181
0.11617115
0.11764771
0.11911008
0.12055684
0.12198656
0.12339782
0.12478922
0.12615937
0.12750691
0.12883052
0.13012891
0.13140086
0.13264519
0.13386083
0.13504674
0.13620199
0.13732574
0.13841725
0.13947588
0.14050111
0.14149252
0.14244981
0.14337282
0.14426148
0.14511586
0.14593613
0.14672260
0.14747566
0.14819583
0.14888371
0.14954001
0.15016551
0.15076107
0.15132761
0.15186612
0.15237763
0.15286320
0.15332395
0.15376098
0.15417542
0.15456842
0.15494110
0.15529458
0.15562997
0.15594834
0.15625077
0.15653826
0.15681182
0.15707240
0.15732091
0.15755823
0.15778520
0.15800262
0.15821123
0.15841175
0.15860486
0.15879117
0.15897130
0.15914578
0.15931515
0.15947989
0.15964046
0.15979726
0.15995070
0.16010114
0.16024891
0.16039433
0.16053768
0.16067922
0.16081919
0.16095783
0.16109534
0.16123189
0.16136766
0.16150281
0.16163748
0.16177179
0.16190585
0.16203978
0.16217365
0.16230757
0.16244159
0.16257579
0.16271022
0.16284494
0.16297998
0.16311541
0.16325124
0.16338752
0.16352427
0.16366153
0.16379931
0.16393765
0.16407656
0.16421608
0.16435621
0.16449698
0.16463841
0.16478052
0.16492332
0.16506684
0.16521109
0.16535609
0.16550186
0.16564840
0.16579573
0.16594386
0.16609281
0.16624258
0.16639318
0.16654462
0.16669691
0.16685005
0.16700404
0.16715889
0.16731460
0.16747119
0.16762864
0.16778698
0.16794620
0.16810632
0.16826733
0.16842926
0.16859211
0.16875590
0.16892064
0.16908635
0.16925305
0.16942074
0.16958946
0.16975921
0.16993003
0.17010193
0.17027492
0.17044903
0.17062428
0.17080067
0.17097823
0.17115697
0.17133689
0.17151802
0.17170035
0.17188391
0.17206868
0.17225468
0.17244191
0.17263037
0.17282007
0.17301101
0.17320318
0.17339659
0.17359125
0.17378715
0.17398429
0.17418268
0.17438233
0.17458322
0.17478536
0.17498876
0.17519341
0.17539930
0.17560642
0.17581478
0.17602434
0.17623509
0.17644701
0.17666005
0.17687416
0.17708931
0.17730541
0.17752240
0.17774018
0.17795864
0.17817768
0.17839714
0.17861687
0.17883669
0.17905640
0.17927577
0.17949456
0.17971247
0.17992920
0.18014440