# vtk DataFile Version 3.0
Concentration output
ASCII
DATASET STRUCTURED_POINTS
DIMENSIONS 398 98 1
ORIGIN 0 0 0
SPACING 0.03 0.03 1.0
POINT_DATA 39004
SCALARS concentration float 1
LOOKUP_TABLE default
0.00003028
0.00006013
0.00009026
0.00012047
0.00015080
0.00018125
0.00021188
0.00024269
0.00027371
0.00030498
0.00033653
0.00036836
0.00040053
0.00043304
0.00046593
0.00049922
0.00053295
0.00056712
0.00060178
0.00063695
0.00067265
0.00070891
0.00074576
0.00078321
0.00082130
0.00086004
0.00089947
0.00093961
0.00098049
0.00102212
0.00106453
0.00110774
0.00115179
0.00119668
0.00124245
0.00128912
0.00133670
0.00138523
0.00143472
0.00148520
0.00153668
0.00158919
0.00164275
0.00169738
0.00175310
0.00180993
0.00186789
0.00192700
0.00198728
0.00204874
0.00211141
0.00217531
0.00224044
0.00230684
0.00237451
0.00244348
0.00251375
0.00258535
0.00265830
0.00273260
0.00280827
0.00288533
0.00296379
0.00304367
0.00312498
0.00320773
0.00329193
0.00337760
0.00346476
0.00355340
0.00364354
0.00373520
0.00382838
0.00392309
0.00401935
0.00411715
0.00421651
0.00431744
0.00441995
0.00452403
0.00462969
0.00473695
0.00484581
0.00495626
0.00506831
0.00518197
0.00529724
0.00541412
0.00553260
0.00565269
0.00577438
0.00589768
0.00602258
0.00614907
0.00627715
0.00640682
0.00653806
0.00667087
0.00680523
0.00694114
0.00707858
0.00721754
0.00735799
0.00749994
0.00764335
0.00778821
0.00793449
0.00808217
0.00823123
0.00838164
0.00853337
0.00868639
0.00884066
0.00899616
0.00915284
0.00931067
0.00946961
0.00962961
0.00979062
0.00995261
0.01011553
0.01027931
0.01044391
0.01060928
0.01077534
0.01094205
0.01110935
0.01127716
0.01144543
0.01161408
0.01178304
0.01195225
0.01212162
0.01229110
0.01246059
0.01263002
0.01279931
0.01296838
0.01313715
0.01330554
0.01347346
0.01364083
0.01380757
0.01397359
0.01413881
0.01430315
0.01446651
0.01462882
0.01479000
0.01494997
0.01510863
0.01526593
0.01542177
0.01557609
0.01572880
0.01587985
0.01602916
0.01617666
0.01632230
0.01646601
0.01660773
0.01674741
0.01688501
0.01702047
0.01715374
0.01728480
0.01741361
0.01754012
0.01766432
0.01778618
0.01790569
0.01802281
0.01813755
0.01824989
0.01835983
0.01846737
0.01857252
0.01867527
0.01877564
0.01887365
0.01896930
0.01906263
0.01915365
0.01924239
0.01932888
0.01941316
0.01949525
0.01957519
0.01965302
0.01972878
0.01980250
0.01987425
0.01994404
0.02001194
0.02007799
0.02014223
0.02020470
0.02026547
0.02032456
0.02038204
0.02043794
0.02049231
0.02054521
0.02059666
0.02064672
0.02069543
0.02074283
0.02078897
0.02083388
0.02087760
0.02092017
0.02096163
0.02100201
0.02104134
0.02107966
0.02111700
0.02115339
0.02118885
0.02122342
0.02125712
0.02128997
0.02132200
0.02135323
0.02138369
0.02141338
0.02144234
0.02147057
0.02149811
0.02152496
0.02155114
0.02157666
0.02160155
0.02162581
0.02164947
0.02167252
0.02169500
0.02171691
0.02173826
0.02175908
0.02177937
0.02179914
0.02181842
0.02183721
0.02185553
0.02187339
0.02189081
0.02190781
0.02192441
0.02194060
0.02195643
0.02197190
0.02198703
0.02200183
0.02201634
0.02203056
0.02204452
0.02205824
0.02207173
0.02208502
0.02209813
0.02211108
0.02212389
0.02213658
0.02214917
0.02216167
0.02217412
0.02218653
0.02219891
0.02221128
0.02222367
0.02223608
0.02224853
0.02226103
0.02227360
0.02228624
0.02229896
0.02231178
0.02232470
0.02233771
0.02235084
0.02236407
0.02237740
0.02239084
0.02240437
0.02241800
0.02243172
0.02244552
0.02245938
0.02247331
0.02248728
0.02250128
0.02251529
0.02252930
0.02254329
0.02255724
0.02257113
0.02258494
0.02259863
0.02261219
0.02262558
0.02263878
0.02265175
0.02266446
0.02267688
0.02268895
0.02270065
0.02271193
0.02272273
0.02273301
0.02274271
0.02275177
0.02276012
0.02276770
0.02277444
0.02278024
0.02278503
0.02278872
0.02279120
0.02279236
0.02279210
0.02279029
0.02278680
0.02278148
0.02277420
0.02276478
0.02275306
0.02273885
0.02272197
0.02270221
0.02267934
0.02265315
0.02262339
0.02258980
0.02255213
0.02251009
0.02246338
0.02241171
0.02235477
0.02229221
0.02222372
0.02214893
0.02206750
0.02197905
0.02188323
0.02177964
0.02166793
0.02154770
0.02141857
0.02128017
0.02113211
0.02097404
0.02080559
0.02062642
0.02043618
0.02023457
0.02002126
0.01979600
0.01955850
0.01930855
0.01904592
0.01877043
0.01848194
0.01818032
0.01786548
0.01753736
0.01719593
0.01684121
0.01647322
0.01609206
0.01569781
0.01529063
0.01487068
0.01443817
0.01399332
0.01353640
0.01306770
0.01258752
0.01209621
0.01159414
0.01108167
0.01055923
0.01002723
0.00948613
0.00893636
0.00837842
0.00781279
0.00723996
0.00666046
0.00607480
0.00548352
0.00488716
0.00428625
0.00368137
0.00307306
0.00246189
0.00184843
0.00123324
0.00062171
0.00006054
0.00012020
0.00018043
0.00024083
0.00030144
0.00036232
0.00042354
0.00048513
0.00054715
0.00060966
0.00067271
0.00073635
0.00080065
0.00086564
0.00093139
0.00099794
0.00106535
0.00113367
0.00120296
0.00127326
0.00134462
0.00141710
0.00149076
0.00156562
0.00164176
0.00171922
0.00179804
0.00187828
0.00195998
0.00204320
0.00212798
0.00221436
0.00230241
0.00239215
0.00248364
0.00257693
0.00267205
0.00276905
0.00286798
0.00296889
0.00307180
0.00317677
0.00328384
0.00339304
0.00350443
0.00361803
0.00373389
0.00385205
0.00397254
0.00409541
0.00422069
0.00434841
0.00447862
0.00461134
0.00474662
0.00488448
0.00502496
0.00516809
0.00531391
0.00546243
0.00561370
0.00576775
0.00592459
0.00608427
0.00624680
0.00641222
0.00658054
0.00675180
0.00692601
0.00710321
0.00728341
0.00746663
0.00765290
0.00784223
0.00803464
0.00823016
0.00842878
0.00863054
0.00883545
0.00904351
0.00925474
0.00946915
0.00968675
0.00990755
0.01013155
0.01035876
0.01058918
0.01082281
0.01105966
0.01129973
0.01154300
0.01178948
0.01203915
0.01229202
0.01254806
0.01280727
0.01306962
0.01333511
0.01360371
0.01387540
0.01415015
0.01442793
0.01470872
0.01499248
0.01527917
0.01556875
0.01586119
0.01615642
0.01645440
0.01675508
0.01705841
0.01736431
0.01767272
0.01798358
0.01829681
0.01861233
0.01893006
0.01924993
0.01957183
0.01989567
0.02022136
0.02054879
0.02087786
0.02120845
0.02154045
0.02187375
0.02220820
0.02254370
0.02288010
0.02321727
0.02355507
0.02389336
0.02423199
0.02457081
0.02490966
0.02524840
0.02558687
0.02592489
0.02626232
0.02659898
0.02693472
0.02726936
0.02760273
0.02793467
0.02826501
0.02859358
0.02892021
0.02924475
0.02956701
0.02988685
0.03020411
0.03051861
0.03083022
0.03113878
0.03144414
0.03174617
0.03204472
0.03233967
0.03263088
0.03291825
0.03320164
0.03348096
0.03375611
0.03402698
0.03429350
0.03455559
0.03481317
0.03506618
0.03531456
0.03555826
0.03579725
0.03603150
0.03626097
0.03648565
0.03670554
0.03692063
0.03713092
0.03733644
0.03753720
0.03773324
0.03792457
0.03811126
0.03829334
0.03847086
0.03864389
0.03881248
0.03897671
0.03913665
0.03929236
0.03944394
0.03959147
0.03973502
0.03987469
0.04001056
0.04014274
0.04027130
0.04039634
0.04051796
0.04063625
0.04075131
0.04086321
0.04097207
0.04107796
0.04118099
0.04128123
0.04137877
0.04147370
0.04156610
0.04165605
0.04174363
0.04182891
0.04191196
0.04199286
0.04207168
0.04214847
0.04222330
0.04229623
0.04236731
0.04243661
0.04250417
0.04257004
0.04263426
0.04269689
0.04275797
0.04281752
0.04287561
0.04293225
0.04298749
0.04304136
0.04309389
0.04314511
0.04319505
0.04324375
0.04329123
0.04333751
0.04338263
0.04342661
0.04346948
0.04351127
0.04355200
0.04359170
0.04363040
0.04366813
0.04370491
0.04374078
0.04377576
0.04380989
0.04384319
0.04387570
0.04390746
0.04393850
0.04396885
0.04399856
0.04402765
0.04405617
0.04408416
0.04411166
0.04413870
0.04416533
0.04419158
0.04421751
0.04424315
0.04426854
0.04429373
0.04431874
0.04434363
0.04436843
0.04439318
0.04441790
0.04444264
0.04446743
0.04449229
0.04451725
0.04454234
0.04456757
0.04459297
0.04461855
0.04464432
0.04467030
0.04469649
0.04472288
0.04474949
0.04477630
0.04480332
0.04483052
0.04485790
0.04488544
0.04491312
0.04494092
0.04496881
0.04499676
0.04502475
0.04505273
0.04508068
0.04510854
0.04513629
0.04516386
0.04519122
0.04521831
0.04524507
0.04527145
0.04529738
0.04532279
0.04534760
0.04537175
0.04539514
0.04541768
0.04543928
0.04545984
0.04547924
0.04549737
0.04551409
0.04552926
0.04554274
0.04555437
0.04556398
0.04557138
0.04557636
0.04557873
0.04557825
0.04557467
0.04556774
0.04555717
0.04554266
0.04552389
0.04550052
0.04547219
0.04543851
0.04539907
0.04535344
0.04530117
0.04524176
0.04517471
0.04509949
0.04501553
0.04492226
0.04481907
0.04470533
0.04458038
0.04444355
0.04429414
0.04413144
0.04395472
0.04376324
0.04355624
0.04333298
0.04309269
0.04283459
0.04255795
0.04226199
0.04194600
0.04160924
0.04125102
0.04087067
0.04046754
0.04004103
0.03959058
0.03911566
0.03861581
0.03809059
0.03753966
0.03696270
0.03635947
0.03572978
0.03507352
0.03439065
0.03368116
0.03294516
0.03218278
0.03139424
0.03057983
0.02973988
0.02887480
0.02798506
0.02707118
0.02613373
0.02517334
0.02419070
0.02318652
0.02216159
0.02111671
0.02005273
0.01897053
0.01787104
0.01675521
0.01562400
0.01447842
0.01331950
0.01214827
0.01096581
0.00977319
0.00857150
0.00736186
0.00614538
0.00492318
0.00369640
0.00246619
0.00124327
0.00009073
0.00018014
0.00027042
0.00036094
0.00045178
0.00054303
0.00063477
0.00072708
0.00082003
0.00091372
0.00100822
0.00110360
0.00119996
0.00129737
0.00139591
0.00149565
0.00159668
0.00169908
0.00180292
0.00190828
0.00201524
0.00212387
0.00223425
0.00234646
0.00246057
0.00257666
0.00269479
0.00281505
0.00293750
0.00306222
0.00318928
0.00331876
0.00345071
0.00358521
0.00372233
0.00386214
0.00400471
0.00415009
0.00429837
0.00444959
0.00460383
0.00476116
0.00492162
0.00508529
0.00525223
0.00542249
0.00559614
0.00577323
0.00595382
0.00613796
0.00632572
0.00651715
0.00671230
0.00691122
0.00711396
0.00732058
0.00753112
0.00774564
0.00796418
0.00818678
0.00841350
0.00864437
0.00887945
0.00911876
0.00936236
0.00961028
0.00986255
0.01011923
0.01038034
0.01064591
0.01091599
0.01119059
0.01146976
0.01175353
0.01204191
0.01233494
0.01263263
0.01293502
0.01324213
0.01355396
0.01387055
0.01419190
0.01451804
0.01484897
0.01518470
0.01552523
0.01587059
0.01622076
0.01657575
0.01693556
0.01730017
0.01766959
0.01804381
0.01842281
0.01880657
0.01919507
0.01958830
0.01998622
0.02038880
0.02079602
0.02120782
0.02162418
0.02204504
0.02247035
0.02290006
0.02333410
0.02377242
0.02421494
0.02466158
0.02511227
0.02556691
0.02602542
0.02648771
0.02695365
0.02742316
0.02789610
0.02837237
0.02885182
0.02933434
0.02981976
0.03030796
0.03079877
0.03129204
0.03178760
0.03228527
0.03278487
0.03328623
0.03378915
0.03429342
0.03479886
0.03530524
0.03581236
0.03632000
0.03682792
0.03733590
0.03784372
0.03835112
0.03885787
0.03936373
0.03986844
0.04037177
0.04087346
0.04137325
0.04187090
0.04236616
0.04285878
0.04334849
0.04383506
0.04431824
0.04479778
0.04527345
0.04574501
0.04621223
0.04667489
0.04713275
0.04758563
0.04803329
0.04847556
0.04891224
0.04934315
0.04976812
0.05018698
0.05059959
0.05100581
0.05140550
0.05179855
0.05218484
0.05256429
0.05293681
0.05330233
0.05366078
0.05401213
0.05435632
0.05469334
0.05502318
0.05534582
0.05566130
0.05596961
0.05627080
0.05656490
0.05685198
0.05713208
0.05740528
0.05767166
0.05793131
0.05818432
0.05843078
0.05867082
0.05890454
0.05913206
0.05935351
0.05956901
0.05977870
0.05998271
0.06018117
0.06037422
0.06056201
0.06074467
0.06092235
0.06109517
0.06126330
0.06142685
0.06158596
0.06174078
0.06189144
0.06203805
0.06218076
0.06231968
0.06245493
0.06258663
0.06271489
0.06283982
0.06296153
0.06308012
0.06319567
0.06330830
0.06341808
0.06352510
0.06362943
0.06373117
0.06383038
0.06392713
0.06402148
0.06411351
0.06420327
0.06429081
0.06437620
0.06445948
0.06454071
0.06461993
0.06469719
0.06477253
0.06484600
0.06491764
0.06498748
0.06505557
0.06512196
0.06518667
0.06524975
0.06531123
0.06537117
0.06542959
0.06548654
0.06554207
0.06559621
0.06564901
0.06570052
0.06575078
0.06579984
0.06584775
0.06589457
0.06594034
0.06598513
0.06602897
0.06607195
0.06611410
0.06615549
0.06619619
0.06623625
0.06627573
0.06631470
0.06635322
0.06639135
0.06642915
0.06646668
0.06650400
0.06654117
0.06657825
0.06661528
0.06665232
0.06668941
0.06672660
0.06676394
0.06680146
0.06683918
0.06687715
0.06691539
0.06695391
0.06699273
0.06703186
0.06707131
0.06711107
0.06715115
0.06719152
0.06723219
0.06727312
0.06731429
0.06735568
0.06739725
0.06743897
0.06748078
0.06752265
0.06756452
0.06760635
0.06764805
0.06768959
0.06773087
0.06777184
0.06781241
0.06785250
0.06789201
0.06793086
0.06796893
0.06800612
0.06804231
0.06807738
0.06811119
0.06814359
0.06817442
0.06820353
0.06823074
0.06825584
0.06827863
0.06829890
0.06831639
0.06833086
0.06834202
0.06834958
0.06835322
0.06835260
0.06834734
0.06833707
0.06832135
0.06829973
0.06827175
0.06823688
0.06819458
0.06814427
0.06808535
0.06801715
0.06793900
0.06785017
0.06774989
0.06763737
0.06751177
0.06737222
0.06721780
0.06704756
0.06686052
0.06665567
0.06643197
0.06618833
0.06592367
0.06563688
0.06532681
0.06499234
0.06463231
0.06424558
0.06383100
0.06338745
0.06291383
0.06240903
0.06187202
0.06130179
0.06069736
0.06005784
0.05938237
0.05867017
0.05792053
0.05713282
0.05630649
0.05544110
0.05453627
0.05359173
0.05260730
0.05158293
0.05051862
0.04941452
0.04827084
0.04708791
0.04586617
0.04460612
0.04330837
0.04197364
0.04060270
0.03919642
0.03775576
0.03628173
0.03477542
0.03323800
0.03167069
0.03007475
0.02845151
0.02680237
0.02512873
0.02343206
0.02171387
0.01997569
0.01821908
0.01644564
0.01465699
0.01285476
0.01104061
0.00921622
0.00738328
0.00554347
0.00369852
0.00186452
0.00012083
0.00023991
0.00036013
0.00048068
0.00060166
0.00072319
0.00084536
0.00096830
0.00109209
0.00121686
0.00134271
0.00146974
0.00159807
0.00172779
0.00185902
0.00199186
0.00212641
0.00226278
0.00240107
0.00254138
0.00268383
0.00282850
0.00297550
0.00312494
0.00327691
0.00343151
0.00358883
0.00374899
0.00391207
0.00407817
0.00424738
0.00441981
0.00459554
0.00477466
0.00495728
0.00514347
0.00533334
0.00552696
0.00572442
0.00592582
0.00613124
0.00634075
0.00655446
0.00677243
0.00699475
0.00722150
0.00745276
0.00768860
0.00792911
0.00817435
0.00842440
0.00867934
0.00893923
0.00920415
0.00947416
0.00974933
0.01002973
0.01031542
0.01060646
0.01090292
0.01120486
0.01151233
0.01182540
0.01214411
0.01246853
0.01279870
0.01313468
0.01347652
0.01382426
0.01417795
0.01453763
0.01490336
0.01527515
0.01565307
0.01603713
0.01642739
0.01682386
0.01722659
0.01763559
0.01805090
0.01847253
0.01890052
0.01933487
0.01977560
0.02022273
0.02067627
0.02113622
0.02160259
0.02207538
0.02255458
0.02304020
0.02353221
0.02403061
0.02453538
0.02504649
0.02556393
0.02608765
0.02661763
0.02715382
0.02769618
0.02824466
0.02879921
0.02935975
0.02992622
0.03049856
0.03107667
0.03166047
0.03224987
0.03284477
0.03344507
0.03405063
0.03466135
0.03527710
0.03589773
0.03652311
0.03715307
0.03778746
0.03842610
0.03906882
0.03971542
0.04036572
0.04101951
0.04167658
0.04233670
0.04299964
0.04366516
0.04433303
0.04500298
0.04567474
0.04634806
0.04702265
0.04769822
0.04837449
0.04905114
0.04972789
0.05040442
0.05108040
0.05175553
0.05242948
0.05310191
0.05377250
0.05444092
0.05510682
0.05576988
0.05642976
0.05708612
0.05773863
0.05838696
0.05903078
0.05966977
0.06030360
0.06093197
0.06155457
0.06217109
0.06278125
0.06338476
0.06398135
0.06457076
0.06515273
0.06572702
0.06629340
0.06685167
0.06740161
0.06794305
0.06847580
0.06899972
0.06951464
0.07002046
0.07051706
0.07100433
0.07148221
0.07195062
0.07240952
0.07285887
0.07329866
0.07372888
0.07414956
0.07456071
0.07496237
0.07535462
0.07573750
0.07611111
0.07647553
0.07683088
0.07717727
0.07751483
0.07784368
0.07816398
0.07847587
0.07877952
0.07907509
0.07936274
0.07964267
0.07991503
0.08018002
0.08043782
0.08068861
0.08093259
0.08116993
0.08140083
0.08162547
0.08184403
0.08205670
0.08226366
0.08246507
0.08266112
0.08285197
0.08303779
0.08321873
0.08339495
0.08356661
0.08373383
0.08389677
0.08405556
0.08421033
0.08436120
0.08450828
0.08465170
0.08479155
0.08492794
0.08506097
0.08519073
0.08531731
0.08544079
0.08556124
0.08567876
0.08579340
0.08590524
0.08601434
0.08612076
0.08622457
0.08632582
0.08642456
0.08652087
0.08661477
0.08670634
0.08679561
0.08688265
0.08696750
0.08705021
0.08713084
0.08720944
0.08728606
0.08736076
0.08743360
0.08750462
0.08757390
0.08764148
0.08770745
0.08777185
0.08783476
0.08789625
0.08795639
0.08801525
0.08807291
0.08812944
0.08818493
0.08823945
0.08829309
0.08834592
0.08839804
0.08844951
0.08850043
0.08855088
0.08860094
0.08865069
0.08870020
0.08874956
0.08879883
0.08884809
0.08889739
0.08894681
0.08899639
0.08904620
0.08909628
0.08914666
0.08919738
0.08924848
0.08929997
0.08935188
0.08940420
0.08945694
0.08951010
0.08956366
0.08961761
0.08967193
0.08972657
0.08978152
0.08983671
0.08989210
0.08994764
0.09000326
0.09005890
0.09011448
0.09016992
0.09022514
0.09028004
0.09033453
0.09038850
0.09044185
0.09049443
0.09054614
0.09059684
0.09064636
0.09069457
0.09074129
0.09078634
0.09082953
0.09087065
0.09090948
0.09094578
0.09097930
0.09100975
0.09103684
0.09106026
0.09107965
0.09109466
0.09110489
0.09110990
0.09110926
0.09110246
0.09108899
0.09106829
0.09103975
0.09100275
0.09095659
0.09090056
0.09083389
0.09075575
0.09066528
0.09056157
0.09044365
0.09031051
0.09016107
0.08999423
0.08980880
0.08960358
0.08937730
0.08912864
0.08885626
0.08855874
0.08823467
0.08788258
0.08750098
0.08708835
0.08664317
0.08616391
0.08564903
0.08509700
0.08450631
0.08387549
0.08320307
0.08248765
0.08172789
0.08092248
0.08007023
0.07916998
0.07822070
0.07722145
0.07617137
0.07506975
0.07391597
0.07270956
0.07145014
0.07013750
0.06877155
0.06735232
0.06588000
0.06435488
0.06277741
0.06114818
0.05946786
0.05773729
0.05595742
0.05412928
0.05225406
0.05033302
0.04836752
0.04635903
0.04430910
0.04221935
0.04009148
0.03792729
0.03572859
0.03349729
0.03123534
0.02894475
0.02662755
0.02428584
0.02192173
0.01953738
0.01713498
0.01471672
0.01228483
0.00984156
0.00738917
0.00492993
0.00248530
0.00015081
0.00029943
0.00044948
0.00059994
0.00075094
0.00090262
0.00105511
0.00120854
0.00136305
0.00151878
0.00167585
0.00183440
0.00199457
0.00215648
0.00232026
0.00248606
0.00265399
0.00282420
0.00299680
0.00317193
0.00334971
0.00353028
0.00371376
0.00390027
0.00408994
0.00428290
0.00447926
0.00467915
0.00488270
0.00509001
0.00530121
0.00551641
0.00573574
0.00595932
0.00618724
0.00641963
0.00665660
0.00689826
0.00714472
0.00739609
0.00765247
0.00791397
0.00818070
0.00845276
0.00873024
0.00901325
0.00930189
0.00959625
0.00989642
0.01020252
0.01051461
0.01083281
0.01115718
0.01148783
0.01182484
0.01216828
0.01251826
0.01287483
0.01323809
0.01360811
0.01398497
0.01436874
0.01475948
0.01515728
0.01556220
0.01597430
0.01639365
0.01682031
0.01725434
0.01769579
0.01814473
0.01860120
0.01906526
0.01953695
0.02001633
0.02050342
0.02099828
0.02150095
0.02201145
0.02252982
0.02305609
0.02359028
0.02413243
0.02468254
0.02524064
0.02580674
0.02638085
0.02696296
0.02755309
0.02815123
0.02875738
0.02937151
0.02999362
0.03062368
0.03126166
0.03190754
0.03256127
0.03322281
0.03389211
0.03456911
0.03525375
0.03594597
0.03664568
0.03735279
0.03806723
0.03878888
0.03951764
0.04025340
0.04099602
0.04174538
0.04250134
0.04326373
0.04403240
0.04480717
0.04558788
0.04637431
0.04716628
0.04796357
0.04876595
0.04957319
0.05038506
0.05120129
0.05202161
0.05284576
0.05367344
0.05450436
0.05533821
0.05617466
0.05701340
0.05785409
0.05869637
0.05953989
0.06038429
0.06122919
0.06207422
0.06291898
0.06376308
0.06460612
0.06544769
0.06628739
0.06712481
0.06795952
0.06879111
0.06961916
0.07044325
0.07126297
0.07207789
0.07288761
0.07369171
0.07448979
0.07528146
0.07606631
0.07684397
0.07761407
0.07837623
0.07913011
0.07987535
0.08061165
0.08133867
0.08205613
0.08276372
0.08346120
0.08414830
0.08482479
0.08549045
0.08614510
0.08678854
0.08742062
0.08804119
0.08865015
0.08924739
0.08983283
0.09040640
0.09096807
0.09151782
0.09205564
0.09258155
0.09309559
0.09359780
0.09408826
0.09456705
0.09503428
0.09549005
0.09593452
0.09636781
0.09679008
0.09720151
0.09760228
0.09799257
0.09837258
0.09874252
0.09910260
0.09945304
0.09979406
0.10012589
0.10044877
0.10076291
0.10106856
0.10136595
0.10165531
0.10193687
0.10221087
0.10247752
0.10273706
0.10298970
0.10323565
0.10347514
0.10370835
0.10393550
0.10415677
0.10437236
0.10458243
0.10478717
0.10498674
0.10518130
0.10537101
0.10555600
0.10573643
0.10591243
0.10608411
0.10625161
0.10641503
0.10657448
0.10673008
0.10688190
0.10703006
0.10717463
0.10731570
0.10745336
0.10758767
0.10771871
0.10784655
0.10797126
0.10809290
0.10821154
0.10832725
0.10844008
0.10855010
0.10865737
0.10876194
0.10886389
0.10896328
0.10906017
0.10915462
0.10924671
0.10933650
0.10942407
0.10950949
0.10959284
0.10967419
0.10975363
0.10983125
0.10990713
0.10998136
0.11005403
0.11012524
0.11019509
0.11026368
0.11033110
0.11039746
0.11046287
0.11052742
0.11059122
0.11065438
0.11071699
0.11077917
0.11084100
0.11090258
0.11096402
0.11102539
0.11108678
0.11114828
0.11120996
0.11127188
0.11133411
0.11139670
0.11145970
0.11152315
0.11158709
0.11165153
0.11171648
0.11178197
0.11184797
0.11191449
0.11198149
0.11204896
0.11211686
0.11218514
0.11225374
0.11232261
0.11239169
0.11246088
0.11253011
0.11259929
0.11266832
0.11273709
0.11280548
0.11287338
0.11294064
0.11300714
0.11307272
0.11313722
0.11320047
0.11326228
0.11332246
0.11338080
0.11343708
0.11349104
0.11354245
0.11359101
0.11363643
0.11367840
0.11371655
0.11375054
0.11377995
0.11380437
0.11382333
0.11383635
0.11384288
0.11384238
0.11383422
0.11381775
0.11379228
0.11375707
0.11371131
0.11365416
0.11358471
0.11350200
0.11340502
0.11329267
0.11316383
0.11301727
0.11285174
0.11266589
0.11245833
0.11222759
0.11197215
0.11169043
0.11138077
0.11104149
0.11067082
0.11026699
0.10982814
0.10935241
0.10883790
0.10828269
0.10768486
0.10704248
0.10635363
0.10561642
0.10482897
0.10398948
0.10309617
0.10214734
0.10114138
0.10007677
0.09895208
0.09776599
0.09651734
0.09520506
0.09382825
0.09238615
0.09087817
0.08930385
0.08766292
0.08595527
0.08418098
0.08234025
0.08043351
0.07846129
0.07642435
0.07432355
0.07215994
0.06993471
0.06764920
0.06530486
0.06290329
0.06044621
0.05793546
0.05537298
0.05276081
0.05010107
0.04739601
0.04464790
0.04185914
0.03903215
0.03616944
0.03327356
0.03034712
0.02739277
0.02441318
0.02141109
0.01838924
0.01535041
0.01229740
0.00923302
0.00616010
0.00310545
0.00018064
0.00035865
0.00053838
0.00071860
0.00089947
0.00108114
0.00126379
0.00144757
0.00163264
0.00181916
0.00200730
0.00219721
0.00238906
0.00258299
0.00277917
0.00297776
0.00317891
0.00338277
0.00358951
0.00379928
0.00401223
0.00422851
0.00444828
0.00467168
0.00489887
0.00512998
0.00536518
0.00560461
0.00584841
0.00609672
0.00634970
0.00660747
0.00687018
0.00713797
0.00741097
0.00768933
0.00797317
0.00826263
0.00855783
0.00885892
0.00916601
0.00947924
0.00979872
0.01012458
0.01045695
0.01079594
0.01114166
0.01149425
0.01185380
0.01222043
0.01259426
0.01297539
0.01336393
0.01375997
0.01416364
0.01457502
0.01499422
0.01542132
0.01585644
0.01629965
0.01675105
0.01721073
0.01767877
0.01815525
0.01864026
0.01913388
0.01963618
0.02014724
0.02066713
0.02119591
0.02173366
0.02228043
0.02283629
0.02340130
0.02397550
0.02455896
0.02515172
0.02575383
0.02636533
0.02698626
0.02761665
0.02825653
0.02890594
0.02956490
0.03023343
0.03091154
0.03159924
0.03229654
0.03300345
0.03371995
0.03444604
0.03518171
0.03592693
0.03668168
0.03744593
0.03821963
0.03900275
0.03979523
0.04059701
0.04140802
0.04222819
0.04305744
0.04389566
0.04474277
0.04559866
0.04646319
0.04733625
0.04821770
0.04910738
0.05000514
0.05091081
0.05182419
0.05274511
0.05367336
0.05460871
0.05555094
0.05649981
0.05745506
0.05841643
0.05938364
0.06035639
0.06133438
0.06231730
0.06330481
0.06429656
0.06529221
0.06629138
0.06729370
0.06829876
0.06930617
0.07031551
0.07132635
0.07233826
0.07335078
0.07436348
0.07537587
0.07638749
0.07739785
0.07840649
0.07941289
0.08041658
0.08141704
0.08241378
0.08340631
0.08439411
0.08537668
0.08635354
0.08732417
0.08828810
0.08924484
0.09019390
0.09113483
0.09206716
0.09299045
0.09390424
0.09480814
0.09570171
0.09658458
0.09745636
0.09831669
0.09916524
0.10000168
0.10082570
0.10163704
0.10243542
0.10322062
0.10399242
0.10475062
0.10549507
0.10622561
0.10694213
0.10764453
0.10833274
0.10900671
0.10966641
0.11031184
0.11094303
0.11156000
0.11216283
0.11275160
0.11332642
0.11388739
0.11443468
0.11496842
0.11548881
0.11599602
0.11649026
0.11697174
0.11744069
0.11789736
0.11834198
0.11877481
0.11919612
0.11960617
0.12000523
0.12039358
0.12077150
0.12113926
0.12149716
0.12184546
0.12218444
0.12251438
0.12283556
0.12314823
0.12345266
0.12374911
0.12403783
0.12431907
0.12459306
0.12486004
0.12512022
0.12537382
0.12562106
0.12586212
0.12609721
0.12632650
0.12655016
0.12676837
0.12698128
0.12718905
0.12739181
0.12758971
0.12778286
0.12797140
0.12815543
0.12833507
0.12851042
0.12868158
0.12884864
0.12901169
0.12917082
0.12932611
0.12947764
0.12962548
0.12976971
0.12991040
0.13004762
0.13018145
0.13031195
0.13043919
0.13056326
0.13068420
0.13080212
0.13091707
0.13102913
0.13113839
0.13124493
0.13134883
0.13145018
0.13154908
0.13164562
0.13173990
0.13183201
0.13192208
0.13201019
0.13209648
0.13218105
0.13226402
0.13234551
0.13242564
0.13250454
0.13258234
0.13265915
0.13273510
0.13281033
0.13288495
0.13295908
0.13303284
0.13310636
0.13317973
0.13325307
0.13332648
0.13340005
0.13347387
0.13354803
0.13362258
0.13369759
0.13377312
0.13384921
0.13392589
0.13400318
0.13408111
0.13415966
0.13423883
0.13431859
0.13439893
0.13447979
0.13456113
0.13464289
0.13472499
0.13480735
0.13488989
0.13497250
0.13505507
0.13513749
0.13521963
0.13530135
0.13538250
0.13546293
0.13554246
0.13562092
0.13569811
0.13577383
0.13584785
0.13591995
0.13598987
0.13605735
0.13612208
0.13618377
0.13624208
0.13629665
0.13634711
0.13639304
0.13643400
0.13646951
0.13649906
0.13652211
0.13653807
0.13654630
0.13654613
0.13653682
0.13651761
0.13648765
0.13644606
0.13639188
0.13632409
0.13624162
0.13614330
0.13602793
0.13589420
0.13574074
0.13556611
0.13536877
0.13514714
0.13489952
0.13462417
0.13431924
0.13398283
0.13361295
0.13320758
0.13276459
0.13228182
0.13175706
0.13118806
0.13057252
0.12990813
0.12919257
0.12842351
0.12759863
0.12671566
0.12577232
0.12476644
0.12369587
0.12255856
0.12135258
0.12007607
0.11872733
0.11730478
0.11580699
0.11423271
0.11258084
0.11085049
0.10904093
0.10715165
0.10518232
0.10313283
0.10100327
0.09879392
0.09650528
0.09413805
0.09169310
0.08917153
0.08657461
0.08390376
0.08116061
0.07834693
0.07546466
0.07251586
0.06950275
0.06642767
0.06329308
0.06010154
0.05685573
0.05355841
0.05021242
0.04682070
0.04338624
0.03991211
0.03640143
0.03285736
0.02928312
0.02568197
0.02205720
0.01841213
0.01475010
0.01107449
0.00738868
0.00372480
0.00021028
0.00041751
0.00062674
0.00083654
0.00104709
0.00125858
0.00147120
0.00168514
0.00190058
0.00211772
0.00233674
0.00255781
0.00278114
0.00300690
0.00323528
0.00346646
0.00370062
0.00393795
0.00417862
0.00442281
0.00467071
0.00492249
0.00517832
0.00543838
0.00570286
0.00597191
0.00624571
0.00652443
0.00680824
0.00709731
0.00739180
0.00769188
0.00799770
0.00830944
0.00862725
0.00895129
0.00928172
0.00961868
0.00996234
0.01031284
0.01067033
0.01103497
0.01140688
0.01178623
0.01217314
0.01256777
0.01297024
0.01338069
0.01379926
0.01422607
0.01466125
0.01510493
0.01555724
0.01601830
0.01648822
0.01696712
0.01745512
0.01795233
0.01845886
0.01897482
0.01950032
0.02003545
0.02058031
0.02113501
0.02169964
0.02227428
0.02285904
0.02345399
0.02405922
0.02467480
0.02530082
0.02593736
0.02658447
0.02724223
0.02791070
0.02858995
0.02928003
0.02998099
0.03069289
0.03141576
0.03214966
0.03289461
0.03365065
0.03441781
0.03519611
0.03598557
0.03678621
0.03759802
0.03842102
0.03925519
0.04010054
0.04095703
0.04182466
0.04270338
0.04359316
0.04449397
0.04540573
0.04632841
0.04726191
0.04820618
0.04916111
0.05012662
0.05110259
0.05208891
0.05308546
0.05409209
0.05510865
0.05613499
0.05717093
0.05821629
0.05927086
0.06033443
0.06140679
0.06248769
0.06357687
0.06467409
0.06577904
0.06689145
0.06801099
0.06913735
0.07027018
0.07140913
0.07255382
0.07370389
0.07485892
0.07601850
0.07718220
0.07834958
0.07952019
0.08069355
0.08186918
0.08304658
0.08422524
0.08540465
0.08658427
0.08776357
0.08894200
0.09011899
0.09129398
0.09246641
0.09363570
0.09480126
0.09596251
0.09711888
0.09826977
0.09941461
0.10055281
0.10168380
0.10280700
0.10392185
0.10502780
0.10612431
0.10721082
0.10828683
0.10935182
0.11040530
0.11144680
0.11247586
0.11349203
0.11449489
0.11548406
0.11645916
0.11741983
0.11836575
0.11929661
0.12021215
0.12111210
0.12199626
0.12286442
0.12371642
0.12455212
0.12537140
0.12617419
0.12696041
0.12773006
0.12848311
0.12921960
0.12993957
0.13064310
0.13133029
0.13200125
0.13265613
0.13329509
0.13391832
0.13452601
0.13511840
0.13569572
0.13625821
0.13680614
0.13733980
0.13785946
0.13836543
0.13885801
0.13933751
0.13980425
0.14025855
0.14070075
0.14113115
0.14155009
0.14195789
0.14235489
0.14274139
0.14311771
0.14348417
0.14384106
0.14418870
0.14452738
0.14485737
0.14517896
0.14549241
0.14579798
0.14609593
0.14638649
0.14666990
0.14694638
0.14721613
0.14747936
0.14773627
0.14798703
0.14823182
0.14847081
0.14870414
0.14893197
0.14915444
0.14937168
0.14958381
0.14979096
0.14999323
0.15019073
0.15038355
0.15057181
0.15075558
0.15093496
0.15111003
0.15128087
0.15144757
0.15161020
0.15176884
0.15192357
0.15207446
0.15222160
0.15236506
0.15250492
0.15264128
0.15277420
0.15290379
0.15303013
0.15315332
0.15327345
0.15339063
0.15350497
0.15361657
0.15372556
0.15383205
0.15393616
0.15403802
0.15413777
0.15423554
0.15433147
0.15442570
0.15451837
0.15460964
0.15469964
0.15478853
0.15487646
0.15496357
0.15505000
0.15513591
0.15522143
0.15530669
0.15539182
0.15547696
0.15556221
0.15564768
0.15573348
0.15581970
0.15590641
0.15599369
0.15608159
0.15617016
0.15625943
0.15634943
0.15644016
0.15653162
0.15662379
0.15671664
0.15681013
0.15690419
0.15699877
0.15709379
0.15718914
0.15728474
0.15738046
0.15747617
0.15757175
0.15766704
0.15776187
0.15785609
0.15794951
0.15804192
0.15813312
0.15822289
0.15831098
0.15839713
0.15848108
0.15856253
0.15864116
0.15871664
0.15878861
0.15885669
0.15892045
0.15897946
0.15903323
0.15908125
0.15912297
0.15915780
0.15918510
0.15920418
0.15921432
0.15921472