# vtk DataFile Version 3.0
Concentration output
ASCII
DATASET STRUCTURED_POINTS
DIMENSIONS 398 98 1
ORIGIN 0 0 0
SPACING 0.03 0.03 1.0
POINT_DATA 39004
SCALARS concentration float 1
LOOKUP_TABLE default
0.00000029
0.00000058
0.00000089
0.00000122
0.00000158
0.00000198
0.00000243
0.00000293
0.00000351
0.00000417
0.00000493
0.00000579
0.00000679
0.00000794
0.00000925
0.00001077
0.00001250
0.00001448
0.00001676
0.00001935
0.00002231
0.00002569
0.00002953
0.00003389
0.00003884
0.00004444
0.00005077
0.00005792
0.00006597
0.00007504
0.00008522
0.00009665
0.00010944
0.00012374
0.00013971
0.00015751
0.00017731
0.00019932
0.00022372
0.00025075
0.00028064
0.00031363
0.00035000
0.00039001
0.00043398
0.00048221
0.00053503
0.00059279
0.00065584
0.00072458
0.00079938
0.00088065
0.00096882
0.00106433
0.00116761
0.00127912
0.00139934
0.00152873
0.00166779
0.00181700
0.00197685
0.00214783
0.00233043
0.00252515
0.00273246
0.00295285
0.00318677
0.00343468
0.00369701
0.00397418
0.00426660
0.00457463
0.00489862
0.00523890
0.00559575
0.00596943
0.00636017
0.00676815
0.00719351
0.00763638
0.00809682
0.00857485
0.00907046
0.00958359
0.01011415
0.01066200
0.01122694
0.01180876
0.01240718
0.01302192
0.01365262
0.01429890
0.01496035
0.01563652
0.01632693
0.01703107
0.01774838
0.01847831
0.01922023
0.01997352
0.02073750
0.02151146
0.02229467
0.02308633
0.02388562
0.02469164
0.02550345
0.02632004
0.02714031
0.02796308
0.02878707
0.02961091
0.03043308
0.03125197
0.03206583
0.03287278
0.03367080
0.03445777
0.03523146
0.03598957
0.03672975
0.03744964
0.03814693
0.03881943
0.03946511
0.04008220
0.04066924
0.04122515
0.04174928
0.04224150
0.04270218
0.04313222
0.04353303
0.04390651
0.04425499
0.04458116
0.04488798
0.04517861
0.04545628
0.04572425
0.04598571
0.04624370
0.04650107
0.04676044
0.04702417
0.04729434
0.04757277
0.04786103
0.04816042
0.04847203
0.04879677
0.04913535
0.04948838
0.04985632
0.05023957
0.05063844
0.05105323
0.05148420
0.05193160
0.05239569
0.05287677
0.05337515
0.05389121
0.05442536
0.05497809
0.05554995
0.05614157
0.05675366
0.05738704
0.05804260
0.05872135
0.05942441
0.06015302
0.06090854
0.06169248
0.06250651
0.06335244
0.06423231
0.06514832
0.06610291
0.06709881
0.06813899
0.06922679
0.07036591
0.07156048
0.07281514
0.07413508
0.07552619
0.07699514
0.07854950
0.08019795
0.08195048
0.08381862
0.08581582
0.08795781
0.09026318
0.09275406
0.09545704
0.09840440
0.10163579
0.10520056
0.10916104
0.11359733
0.11861444
0.12435338
0.13100929
0.13886297
0.14833623
0.16008635
0.17516399
0.19532313
0.22381749
0.26660351
0.31996937
0.23502226
0.13391679
0.07284290
0.04019762
0.02279238
0.01325845
0.00787675
0.00475883
0.00291408
0.00180414
0.00112720
0.00070971
0.00044982
0.00028675
0.00018373
0.00011825
0.00007641
0.00004955
0.00003224
0.00002104
0.00001377
0.00000903
0.00000594
0.00000391
0.00000258
0.00000171
0.00000113
0.00000075
0.00000050
0.00000033
0.00000022
0.00000015
0.00000010
0.00000007
0.00000004
0.00000003
0.00000002
0.00000001
0.00000001
0.00000001
0.00000000
0.00000000
0.00000000
0.00000000
0.00000000
0.00000000
0.00000000
0.00000000
0.00000000
0.00000000
0.00000000
0.00000000
0.00000000
0.00000000
0.00000000
0.00000000
0.00000000
0.00000000
0.00000000
0.00000000
0.00000000
0.00000000
0.00000000
0.00000000
0.00000000
0.00000000
0.00000000
0.00000000
0.00000000
0.00000000
0.00000000
0.00000000
0.00000000
0.00000000
0.00000000
0.00000000
0.00000000
0.00000000
0.00000000
0.00000000
0.00000000
0.00000000
0.00000000
0.00000000
0.00000000
0.00000000
0.00000000
0.00000000
0.00000000
0.00000000
0.00000000
0.00000000
0.00000000
0.00000000
0.00000000
0.00000000
0.00000000
0.00000000
0.00000000
0.00000000
0.00000000
0.00000000
0.00000000
0.00000000
0.00000000
0.00000000
0.00000000
0.00000000
0.00000000
0.00000000
0.00000000
0.00000000
0.00000000
0.00000000
0.00000000
0.00000000
0.00000000
0.00000000
0.00000000
0.00000000
0.00000000
0.00000000
0.00000000
0.00000000
0.00000000
0.00000000
0.00000000
0.00000000
0.00000000
0.00000000
0.00000000
0.00000000
0.00000000
0.00000000
0.00000000
0.00000000
0.00000000
0.00000000
0.00000000
0.00000000
0.00000000
0.00000000
0.00000000
0.00000000
0.00000000
0.00000000
0.00000000
0.00000000
0.00000000
0.00000000
0.00000000
0.00000000
0.00000000
0.00000000
0.00000000
0.00000000
0.00000000
0.00000000
0.00000000
0.00000000
0.00000000
0.00000000
0.00000000
0.00000000
0.00000000
0.00000000
0.00000000
0.00000000
0.00000000
0.00000000
0.00000000
0.00000000
0.00000000
0.00000000
0.00000000
0.00000000
0.00000000
0.00000000
0.00000000
0.00000000
0.00000000
0.00000000
0.00000000
0.00000000
0.00000058
0.00000116
0.00000177
0.00000243
0.00000315
0.00000395
0.00000485
0.00000586
0.00000702
0.00000833
0.00000984
0.00001158
0.00001357
0.00001586
0.00001849
0.00002151
0.00002498
0.00002894
0.00003348
0.00003867
0.00004459
0.00005133
0.00005901
0.00006772
0.00007760
0.00008880
0.00010145
0.00011573
0.00013183
0.00014995
0.00017030
0.00019313
0.00021869
0.00024727
0.00027918
0.00031475
0.00035432
0.00039829
0.00044705
0.00050107
0.00056078
0.00062671
0.00069938
0.00077934
0.00086719
0.00096356
0.00106911
0.00118452
0.00131052
0.00144786
0.00159733
0.00175973
0.00193591
0.00212674
0.00233312
0.00255594
0.00279615
0.00305471
0.00333256
0.00363070
0.00395010
0.00429174
0.00465660
0.00504567
0.00545990
0.00590025
0.00636765
0.00686299
0.00738715
0.00794096
0.00852522
0.00914067
0.00978802
0.01046789
0.01118088
0.01192749
0.01270817
0.01352329
0.01437314
0.01525795
0.01617786
0.01713291
0.01812307
0.01914824
0.02020820
0.02130269
0.02243132
0.02359365
0.02478916
0.02601722
0.02727716
0.02856822
0.02988957
0.03124032
0.03261949
0.03402607
0.03545898
0.03691705
0.03839910
0.03990383
0.04142992
0.04297597
0.04454049
0.04612193
0.04771861
0.04932880
0.05095060
0.05258200
0.05422082
0.05586473
0.05751119
0.05915745
0.06080052
0.06243718
0.06406394
0.06567703
0.06727246
0.06884597
0.07039309
0.07190920
0.07338957
0.07482944
0.07622417
0.07756929
0.07886071
0.08009480
0.08126856
0.08237978
0.08342712
0.08441025
0.08532988
0.08618779
0.08698681
0.08773076
0.08842433
0.08907295
0.08968260
0.09025963
0.09081060
0.09134208
0.09186047
0.09237192
0.09288214
0.09339641
0.09391944
0.09445541
0.09500797
0.09558019
0.09617471
0.09679368
0.09743886
0.09811170
0.09881335
0.09954474
0.10030662
0.10109963
0.10192430
0.10278115
0.10367065
0.10459333
0.10554973
0.10654047
0.10756627
0.10862794
0.10972642
0.11086280
0.11203830
0.11325432
0.11451244
0.11581442
0.11716225
0.11855810
0.12000440
0.12150384
0.12305937
0.12467423
0.12635201
0.12809664
0.12991246
0.13180424
0.13377726
0.13583735
0.13799100
0.14024541
0.14260859
0.14508955
0.14769836
0.15044642
0.15334659
0.15641350
0.15966385
0.16311682
0.16679453
0.17072266
0.17493120
0.17945547
0.18433733
0.18962686
0.19538456
0.20168429
0.20861729
0.21629783
0.22487121
0.23452535
0.24550820
0.25815492
0.27293261
0.29051358
0.31188460
0.33847111
0.37219030
0.41518573
0.46759304
0.50720878
0.36721077
0.22003499
0.12600162
0.07224890
0.04203864
0.02487577
0.01494975
0.00910522
0.00560860
0.00348799
0.00218696
0.00138091
0.00087731
0.00056038
0.00035965
0.00023181
0.00014999
0.00009738
0.00006342
0.00004143
0.00002713
0.00001781
0.00001172
0.00000773
0.00000511
0.00000338
0.00000224
0.00000149
0.00000099
0.00000066
0.00000044
0.00000029
0.00000020
0.00000013
0.00000009
0.00000006
0.00000004
0.00000003
0.00000002
0.00000001
0.00000001
0.00000001
0.00000000
0.00000000
0.00000000
0.00000000
0.00000000
0.00000000
0.00000000
0.00000000
0.00000000
0.00000000
0.00000000
0.00000000
0.00000000
0.00000000
0.00000000
0.00000000
0.00000000
0.00000000
0.00000000
0.00000000
0.00000000
0.00000000
0.00000000
0.00000000
0.00000000
0.00000000
0.00000000
0.00000000
0.00000000
0.00000000
0.00000000
0.00000000
0.00000000
0.00000000
0.00000000
0.00000000
0.00000000
0.00000000
0.00000000
0.00000000
0.00000000
0.00000000
0.00000000
0.00000000
0.00000000
0.00000000
0.00000000
0.00000000
0.00000000
0.00000000
0.00000000
0.00000000
0.00000000
0.00000000
0.00000000
0.00000000
0.00000000
0.00000000
0.00000000
0.00000000
0.00000000
0.00000000
0.00000000
0.00000000
0.00000000
0.00000000
0.00000000
0.00000000
0.00000000
0.00000000
0.00000000
0.00000000
0.00000000
0.00000000
0.00000000
0.00000000
0.00000000
0.00000000
0.00000000
0.00000000
0.00000000
0.00000000
0.00000000
0.00000000
0.00000000
0.00000000
0.00000000
0.00000000
0.00000000
0.00000000
0.00000000
0.00000000
0.00000000
0.00000000
0.00000000
0.00000000
0.00000000
0.00000000
0.00000000
0.00000000
0.00000000
0.00000000
0.00000000
0.00000000
0.00000000
0.00000000
0.00000000
0.00000000
0.00000000
0.00000000
0.00000000
0.00000000
0.00000000
0.00000000
0.00000000
0.00000000
0.00000000
0.00000000
0.00000000
0.00000000
0.00000000
0.00000000
0.00000000
0.00000000
0.00000000
0.00000000
0.00000000
0.00000000
0.00000000
0.00000000
0.00000000
0.00000000
0.00000000
0.00000000
0.00000000
0.00000000
0.00000000
0.00000000
0.00000000
0.00000000
0.00000000
0.00000000
0.00000086
0.00000173
0.00000266
0.00000364
0.00000472
0.00000592
0.00000726
0.00000878
0.00001051
0.00001248
0.00001475
0.00001734
0.00002033
0.00002376
0.00002770
0.00003222
0.00003741
0.00004335
0.00005015
0.00005792
0.00006679
0.00007689
0.00008838
0.00010144
0.00011624
0.00013300
0.00015196
0.00017335
0.00019747
0.00022460
0.00025508
0.00028927
0.00032756
0.00037038
0.00041817
0.00047144
0.00053071
0.00059656
0.00066961
0.00075051
0.00083996
0.00093870
0.00104754
0.00116730
0.00129889
0.00144323
0.00160132
0.00177418
0.00196289
0.00216860
0.00239246
0.00263570
0.00289957
0.00318539
0.00349448
0.00382821
0.00418798
0.00457522
0.00499136
0.00543788
0.00591623
0.00642790
0.00697435
0.00755704
0.00817741
0.00883690
0.00953688
0.01027871
0.01106369
0.01189307
0.01276804
0.01368972
0.01465915
0.01567728
0.01674499
0.01786303
0.01903208
0.02025269
0.02152529
0.02285023
0.02422769
0.02565775
0.02714037
0.02867538
0.03026247
0.03190122
0.03359106
0.03533134
0.03712124
0.03895986
0.04084617
0.04277904
0.04475722
0.04677937
0.04884405
0.05094973
0.05309478
0.05527750
0.05749608
0.05974862
0.06203314
0.06434755
0.06668963
0.06905709
0.07144745
0.07385810
0.07628626
0.07872894
0.08118293
0.08364475
0.08611063
0.08857651
0.09103794
0.09349012
0.09592785
0.09834554
0.10073717
0.10309636
0.10541641
0.10769032
0.10991093
0.11207103
0.11416352
0.11618158
0.11811890
0.11996986
0.12172981
0.12339525
0.12496403
0.12643553
0.12781072
0.12909223
0.13028434
0.13139280
0.13242474
0.13338841
0.13429294
0.13514801
0.13596359
0.13674969
0.13751605
0.13827197
0.13902612
0.13978643
0.14056004
0.14135320
0.14217135
0.14301912
0.14390037
0.14481829
0.14577549
0.14677407
0.14781569
0.14890168
0.15003314
0.15121095
0.15243587
0.15370860
0.15502982
0.15640025
0.15782067
0.15929194
0.16081508
0.16239125
0.16402180
0.16570829
0.16745249
0.16925642
0.17112236
0.17305287
0.17505080
0.17711934
0.17926200
0.18148266
0.18378560
0.18617553
0.18865761
0.19123753
0.19392155
0.19671655
0.19963013
0.20267067
0.20584745
0.20917080
0.21265219
0.21630444
0.22014191
0.22418076
0.22843923
0.23293797
0.23770049
0.24275370
0.24812849
0.25386060
0.25999154
0.26656993
0.27365303
0.28130885
0.28961886
0.29868151
0.30861705
0.31957395
0.33173782
0.34534370
0.36069353
0.37818131
0.39833123
0.42185458
0.44972185
0.48319526
0.52358280
0.57070650
0.61539820
0.60722807
0.42985418
0.26606356
0.15857852
0.09409027
0.05620567
0.03391642
0.02068209
0.01273595
0.00791201
0.00495361
0.00312279
0.00198063
0.00126302
0.00080930
0.00052083
0.00033649
0.00021817
0.00014191
0.00009258
0.00006056
0.00003971
0.00002610
0.00001719
0.00001135
0.00000750
0.00000497
0.00000330
0.00000219
0.00000146
0.00000097
0.00000065
0.00000043
0.00000029
0.00000019
0.00000013
0.00000009
0.00000006
0.00000004
0.00000003
0.00000002
0.00000001
0.00000001
0.00000001
0.00000000
0.00000000
0.00000000
0.00000000
0.00000000
0.00000000
0.00000000
0.00000000
0.00000000
0.00000000
0.00000000
0.00000000
0.00000000
0.00000000
0.00000000
0.00000000
0.00000000
0.00000000
0.00000000
0.00000000
0.00000000
0.00000000
0.00000000
0.00000000
0.00000000
0.00000000
0.00000000
0.00000000
0.00000000
0.00000000
0.00000000
0.00000000
0.00000000
0.00000000
0.00000000
0.00000000
0.00000000
0.00000000
0.00000000
0.00000000
0.00000000
0.00000000
0.00000000
0.00000000
0.00000000
0.00000000
0.00000000
0.00000000
0.00000000
0.00000000
0.00000000
0.00000000
0.00000000
0.00000000
0.00000000
0.00000000
0.00000000
0.00000000
0.00000000
0.00000000
0.00000000
0.00000000
0.00000000
0.00000000
0.00000000
0.00000000
0.00000000
0.00000000
0.00000000
0.00000000
0.00000000
0.00000000
0.00000000
0.00000000
0.00000000
0.00000000
0.00000000
0.00000000
0.00000000
0.00000000
0.00000000
0.00000000
0.00000000
0.00000000
0.00000000
0.00000000
0.00000000
0.00000000
0.00000000
0.00000000
0.00000000
0.00000000
0.00000000
0.00000000
0.00000000
0.00000000
0.00000000
0.00000000
0.00000000
0.00000000
0.00000000
0.00000000
0.00000000
0.00000000
0.00000000
0.00000000
0.00000000
0.00000000
0.00000000
0.00000000
0.00000000
0.00000000
0.00000000
0.00000000
0.00000000
0.00000000
0.00000000
0.00000000
0.00000000
0.00000000
0.00000000
0.00000000
0.00000000
0.00000000
0.00000000
0.00000000
0.00000000
0.00000000
0.00000000
0.00000000
0.00000000
0.00000000
0.00000000
0.00000000
0.00000000
0.00000000
0.00000000
0.00000000
0.00000000
0.00000000
0.00000000
0.00000115
0.00000231
0.00000353
0.00000485
0.00000629
0.00000788
0.00000967
0.00001168
0.00001398
0.00001661
0.00001962
0.00002308
0.00002705
0.00003161
0.00003686
0.00004288
0.00004978
0.00005769
0.00006674
0.00007708
0.00008887
0.00010232
0.00011761
0.00013498
0.00015468
0.00017698
0.00020220
0.00023067
0.00026276
0.00029886
0.00033943
0.00038492
0.00043587
0.00049284
0.00055643
0.00062731
0.00070618
0.00079381
0.00089101
0.00099865
0.00111767
0.00124906
0.00139387
0.00155323
0.00172832
0.00192038
0.00213072
0.00236072
0.00261182
0.00288552
0.00318338
0.00350702
0.00385811
0.00423840
0.00464964
0.00509367
0.00557235
0.00608756
0.00664124
0.00723532
0.00787175
0.00855249
0.00927951
0.01005473
0.01088009
0.01175747
0.01268871
0.01367562
0.01471992
0.01582328
0.01698727
0.01821339
0.01950301
0.02085740
0.02227771
0.02376496
0.02532003
0.02694365
0.02863642
0.03039875
0.03223091
0.03413301
0.03610496
0.03814655
0.04025736
0.04243681
0.04468418
0.04699855
0.04937886
0.05182389
0.05433228
0.05690251
0.05953293
0.06222176
0.06496708
0.06776686
0.07061895
0.07352106
0.07647083
0.07946573
0.08250316
0.08558034
0.08869438
0.09184224
0.09502067
0.09822626
0.10145535
0.10470402
0.10796806
0.11124292
0.11452365
0.11780492
0.12108088
0.12434521
0.12759104
0.13081096
0.13399699
0.13714062
0.14023286
0.14326433
0.14622536
0.14910616
0.15189705
0.15458868
0.15717232
0.15964017
0.16198569
0.16420390
0.16629164
0.16824784
0.17007364
0.17177248
0.17335003
0.17481409
0.17617432
0.17744195
0.17862942
0.17974993
0.18081710
0.18184450
0.18284538
0.18383232
0.18481705
0.18581023
0.18682141
0.18785895
0.18893006
0.19004085
0.19119640
0.19240086
0.19365761
0.19496932
0.19633812
0.19776568
0.19925333
0.20080217
0.20241310
0.20408697
0.20582459
0.20762681
0.20949457
0.21142894
0.21343116
0.21550267
0.21764515
0.21986057
0.22215114
0.22451943
0.22696832
0.22950107
0.23212130
0.23483304
0.23764076
0.24054940
0.24356438
0.24669167
0.24993781
0.25331000
0.25681613
0.26046487
0.26426578
0.26822939
0.27236731
0.27669243
0.28121906
0.28596311
0.29094238
0.29617682
0.30168883
0.30750373
0.31365018
0.32016082
0.32707293
0.33442935
0.34227954
0.35068092
0.35970056
0.36941733
0.37992456
0.39133353
0.40377797
0.41741989
0.43245723
0.44913374
0.46775182
0.48868880
0.51241790
0.53953379
0.57077225
0.60696253
0.64861258
0.69353281
0.72300771
0.64190339
0.44586498
0.28259165
0.17390813
0.10630007
0.06509709
0.04007424
0.02482820
0.01548389
0.00971766
0.00613490
0.00389415
0.00248413
0.00159185
0.00102429
0.00066158
0.00042878
0.00027878
0.00018178
0.00011885
0.00007790
0.00005118
0.00003369
0.00002223
0.00001469
0.00000973
0.00000645
0.00000428
0.00000285
0.00000190
0.00000127
0.00000085
0.00000057
0.00000038
0.00000025
0.00000017
0.00000011
0.00000008
0.00000005
0.00000003
0.00000002
0.00000002
0.00000001
0.00000001
0.00000000
0.00000000
0.00000000
0.00000000
0.00000000
0.00000000
0.00000000
0.00000000
0.00000000
0.00000000
0.00000000
0.00000000
0.00000000
0.00000000
0.00000000
0.00000000
0.00000000
0.00000000
0.00000000
0.00000000
0.00000000
0.00000000
0.00000000
0.00000000
0.00000000
0.00000000
0.00000000
0.00000000
0.00000000
0.00000000
0.00000000
0.00000000
0.00000000
0.00000000
0.00000000
0.00000000
0.00000000
0.00000000
0.00000000
0.00000000
0.00000000
0.00000000
0.00000000
0.00000000
0.00000000
0.00000000
0.00000000
0.00000000
0.00000000
0.00000000
0.00000000
0.00000000
0.00000000
0.00000000
0.00000000
0.00000000
0.00000000
0.00000000
0.00000000
0.00000000
0.00000000
0.00000000
0.00000000
0.00000000
0.00000000
0.00000000
0.00000000
0.00000000
0.00000000
0.00000000
0.00000000
0.00000000
0.00000000
0.00000000
0.00000000
0.00000000
0.00000000
0.00000000
0.00000000
0.00000000
0.00000000
0.00000000
0.00000000
0.00000000
0.00000000
0.00000000
0.00000000
0.00000000
0.00000000
0.00000000
0.00000000
0.00000000
0.00000000
0.00000000
0.00000000
0.00000000
0.00000000
0.00000000
0.00000000
0.00000000
0.00000000
0.00000000
0.00000000
0.00000000
0.00000000
0.00000000
0.00000000
0.00000000
0.00000000
0.00000000
0.00000000
0.00000000
0.00000000
0.00000000
0.00000000
0.00000000
0.00000000
0.00000000
0.00000000
0.00000000
0.00000000
0.00000000
0.00000000
0.00000000
0.00000000
0.00000000
0.00000000
0.00000000
0.00000000
0.00000000
0.00000000
0.00000000
0.00000000
0.00000000
0.00000000
0.00000000
0.00000000
0.00000000
0.00000000
0.00000000
0.00000000
0.00000143
0.00000288
0.00000441
0.00000605
0.00000784
0.00000982
0.00001205
0.00001457
0.00001743
0.00002071
0.00002446
0.00002878
0.00003373
0.00003942
0.00004596
0.00005346
0.00006207
0.00007193
0.00008321
0.00009610
0.00011081
0.00012757
0.00014663
0.00016829
0.00019285
0.00022066
0.00025211
0.00028760
0.00032761
0.00037262
0.00042319
0.00047991
0.00054343
0.00061446
0.00069374
0.00078211
0.00088044
0.00098969
0.00111087
0.00124507
0.00139345
0.00155725
0.00173780
0.00193647
0.00215475
0.00239419
0.00265642
0.00294315
0.00325619
0.00359739
0.00396872
0.00437218
0.00480987
0.00528394
0.00579660
0.00635013
0.00694684
0.00758910
0.00827929
0.00901984
0.00981318
0.01066175
0.01156799
0.01253431
0.01356311
0.01465673
0.01581749
0.01704761
0.01834925
0.01972448
0.02117526
0.02270344
0.02431073
0.02599873
0.02776885
0.02962235
0.03156034
0.03358371
0.03569320
0.03788933
0.04017242
0.04254258
0.04499974
0.04754358
0.05017359
0.05288906
0.05568904
0.05857242
0.06153785
0.06458381
0.06770860
0.07091032
0.07418691
0.07753616
0.08095567
0.08444292
0.08799523
0.09160980
0.09528365
0.09901369
0.10279669
0.10662925
0.11050779
0.11442857
0.11838764
0.12238078
0.12640355
0.13045113
0.13451840
0.13859978
0.14268924
0.14678023
0.15086559
0.15493754
0.15898760
0.16300661
0.16698464
0.17091107
0.17477463
0.17856346
0.18226529
0.18586763
0.18935802
0.19272434
0.19595520
0.19904031
0.20197095
0.20474035
0.20734408
0.20978041
0.21205047
0.21415842
0.21611136
0.21791918
0.21959426
0.22115102
0.22260547
0.22397460
0.22527591
0.22652684
0.22774433
0.22894444
0.23014205
0.23135065
0.23258225
0.23384731
0.23515478
0.23651218
0.23792574
0.23940050
0.24094049
0.24254889
0.24422818
0.24598027
0.24780668
0.24970858
0.25168699
0.25374279
0.25587686
0.25809009
0.26038351
0.26275831
0.26521586
0.26775781
0.27038607
0.27310291
0.27591090
0.27881304
0.28181268
0.28491364
0.28812017
0.29143702
0.29486942
0.29842316
0.30210460
0.30592074
0.30987922
0.31398844
0.31825759
0.32269674
0.32731697
0.33213044
0.33715054
0.34239207
0.34787139
0.35360666
0.35961811
0.36592826
0.37256235
0.37954873
0.38691929
0.39471011
0.40296213
0.41172200
0.42104310
0.43098679
0.44162391
0.45303669
0.46532098
0.47858907
0.49297317
0.50862957
0.52574381
0.54453654
0.56526997
0.58825377
0.61384871
0.64246245
0.67451419
0.71025854
0.74890491
0.78419773
0.78307891
0.62902641
0.43162191
0.27894440
0.17633021
0.11062670
0.06931601
0.04350528
0.02739186
0.01731282
0.01098729
0.00700158
0.00447954
0.00287688
0.00185424
0.00119914
0.00077792
0.00050614
0.00033021
0.00021598
0.00014160
0.00009304
0.00006126
0.00004041
0.00002671
0.00001768
0.00001173
0.00000779
0.00000518
0.00000345
0.00000230
0.00000154
0.00000103
0.00000069
0.00000046
0.00000031
0.00000021
0.00000014
0.00000009
0.00000006
0.00000004
0.00000003
0.00000002
0.00000001
0.00000001
0.00000001
0.00000000
0.00000000
0.00000000
0.00000000
0.00000000
0.00000000
0.00000000
0.00000000
0.00000000
0.00000000
0.00000000
0.00000000
0.00000000
0.00000000
0.00000000
0.00000000
0.00000000
0.00000000
0.00000000
0.00000000
0.00000000
0.00000000
0.00000000
0.00000000
0.00000000
0.00000000
0.00000000
0.00000000
0.00000000
0.00000000
0.00000000
0.00000000
0.00000000
0.00000000
0.00000000
0.00000000
0.00000000
0.00000000
0.00000000
0.00000000
0.00000000
0.00000000
0.00000000
0.00000000
0.00000000
0.00000000
0.00000000
0.00000000
0.00000000
0.00000000
0.00000000
0.00000000
0.00000000
0.00000000
0.00000000
0.00000000
0.00000000
0.00000000
0.00000000
0.00000000
0.00000000
0.00000000
0.00000000
0.00000000
0.00000000
0.00000000
0.00000000
0.00000000
0.00000000
0.00000000
0.00000000
0.00000000
0.00000000
0.00000000
0.00000000
0.00000000
0.00000000
0.00000000
0.00000000
0.00000000
0.00000000
0.00000000
0.00000000
0.00000000
0.00000000
0.00000000
0.00000000
0.00000000
0.00000000
0.00000000
0.00000000
0.00000000
0.00000000
0.00000000
0.00000000
0.00000000
0.00000000
0.00000000
0.00000000
0.00000000
0.00000000
0.00000000
0.00000000
0.00000000
0.00000000
0.00000000
0.00000000
0.00000000
0.00000000
0.00000000
0.00000000
0.00000000
0.00000000
0.00000000
0.00000000
0.00000000
0.00000000
0.00000000
0.00000000
0.00000000
0.00000000
0.00000000
0.00000000
0.00000000
0.00000000
0.00000000
0.00000000
0.00000000
0.00000000
0.00000000
0.00000000
0.00000000
0.00000000
0.00000000
0.00000000
0.00000000
0.00000000
0.00000000
0.00000000
0.00000000
0.00000171
0.00000344
0.00000527
0.00000723
0.00000938
0.00001175
0.00001442
0.00001743
0.00002086
0.00002478
0.00002927
0.00003442
0.00004035
0.00004716
0.00005498
0.00006395
0.00007425
0.00008604
0.00009954
0.00011496
0.00013256
0.00015260
0.00017541
0.00020132
0.00023070
0.00026397
0.00030158
0.00034404
0.00039189
0.00044574
0.00050623
0.00057408
0.00065007
0.00073503
0.00082987
0.00093557
0.00105320
0.00118387
0.00132882
0.00148934
0.00166683
0.00186277
0.00207872
0.00231636
0.00257745
0.00286385
0.00317750
0.00352047
0.00389489
0.00430300
0.00474713
0.00522970
0.00575320
0.00632021
0.00693337
0.00759541
0.00830908
0.00907722
0.00990268
0.01078836
0.01173716
0.01275200
0.01383579
0.01499142
0.01622175
0.01752959
0.01891768
0.02038870
0.02194522
0.02358970
0.02532449
0.02715180
0.02907367
0.03109198
0.03320844
0.03542455
0.03774160
0.04016067
0.04268263
0.04530809
0.04803742
0.05087076
0.05380799
0.05684873
0.05999236
0.06323801
0.06658455
0.07003063
0.07357463
0.07721473
0.08094887
0.08477480
0.08869004
0.09269194
0.09677765
0.10094415
0.10518826
0.10950664
0.11389576
0.11835198
0.12287144
0.12745014
0.13208390
0.13676829
0.14149869
0.14627019
0.15107755
0.15591520
0.16077713
0.16565686
0.17054734
0.17544090
0.18032918
0.18520303
0.19005247
0.19486661
0.19963366
0.20434091
0.20897476
0.21352086
0.21796422
0.22228947
0.22648113
0.23052404
0.23440379
0.23810723
0.24162303
0.24494226
0.24805883
0.25097004
0.25367682
0.25618390
0.25849983
0.26063671
0.26260984
0.26443713
0.26613849
0.26773510
0.26924868
0.27070088
0.27211262
0.27350366
0.27489220
0.27629465
0.27772552
0.27919737
0.28072083
0.28230478
0.28395646
0.28568171
0.28748509
0.28937016
0.29133964
0.29339557
0.29553953
0.29777271
0.30009609
0.30251052
0.30501682
0.30761589
0.31030871
0.31309649
0.31598067
0.31896295
0.32204541
0.32523047
0.32852096
0.33192015
0.33543177
0.33906001
0.34280961
0.34668582
0.35069446
0.35484196
0.35913536
0.36358241
0.36819155
0.37297204
0.37793399
0.38308845
0.38844749
0.39402437
0.39983361
0.40589120
0.41221474
0.41882368
0.42573957
0.43298630
0.44059046
0.44858170
0.45699318
0.46586208
0.47523022
0.48514475
0.49565905
0.50683370
0.51873767
0.53144970
0.54505986
0.55967142
0.57540286
0.59239005
0.61078854
0.63077534
0.65254953
0.67632971
0.70234495
0.73080728
0.76181530
0.79492856
0.82705449
0.84190069
0.77234853
0.58208535
0.39870435
0.26257302
0.16995047
0.10911481
0.06981085
0.04462343
0.02854164
0.01828457
0.01173889
0.00755515
0.00487527
0.00315436
0.00204630
0.00133088
0.00086773
0.00056709
0.00037144
0.00024381
0.00016036
0.00010567
0.00006976
0.00004613
0.00003056
0.00002027
0.00001347
0.00000896
0.00000597
0.00000398
0.00000266
0.00000178
0.00000119
0.00000080
0.00000053
0.00000036
0.00000024
0.00000016
0.00000011
0.00000007
0.00000005
0.00000003
0.00000002
0.00000002
0.00000001
0.00000001
0.00000000
0.00000000
0.00000000
0.00000000
0.00000000
0.00000000
0.00000000
0.00000000
0.00000000
0.00000000
0.00000000
0.00000000
0.00000000
0.00000000
0.00000000
0.00000000
0.00000000
0.00000000
0.00000000
0.00000000
0.00000000
0.00000000
0.00000000
0.00000000
0.00000000
0.00000000
0.00000000
0.00000000
0.00000000
0.00000000
0.00000000
0.00000000
0.00000000
0.00000000
0.00000000
0.00000000
0.00000000
0.00000000
0.00000000
0.00000000
0.00000000
0.00000000
0.00000000
0.00000000
0.00000000
0.00000000
0.00000000
0.00000000
0.00000000
0.00000000
0.00000000
0.00000000
0.00000000
0.00000000
0.00000000
0.00000000
0.00000000
0.00000000
0.00000000
0.00000000
0.00000000
0.00000000
0.00000000
0.00000000
0.00000000
0.00000000
0.00000000
0.00000000
0.00000000
0.00000000
0.00000000
0.00000000
0.00000000
0.00000000
0.00000000
0.00000000
0.00000000
0.00000000
0.00000000
0.00000000
0.00000000
0.00000000
0.00000000
0.00000000
0.00000000
0.00000000
0.00000000
0.00000000
0.00000000
0.00000000
0.00000000
0.00000000
0.00000000
0.00000000
0.00000000
0.00000000
0.00000000
0.00000000
0.00000000
0.00000000
0.00000000
0.00000000
0.00000000
0.00000000
0.00000000
0.00000000
0.00000000
0.00000000
0.00000000
0.00000000
0.00000000
0.00000000
0.00000000
0.00000000
0.00000000
0.00000000
0.00000000
0.00000000
0.00000000
0.00000000
0.00000000
0.00000000
0.00000000
0.00000000
0.00000000
0.00000000
0.00000000
0.00000000
0.00000000
0.00000000
0.00000000
0.00000000
0.00000000
0.00000000
0.00000000
0.00000000
0.00000000
0.00000000
0.00000000
0.00000000
0.00000199
0.00000400
0.00000613
0.00000841
0.00001090
0.00001366
0.00001676
0.00002026
0.00002424
0.00002880
0.00003402
0.00004001
0.00004690
0.00005481
0.00006390
0.00007434
0.00008631
0.00010002
0.00011571
0.00013363
0.00015408
0.00017738
0.00020389
0.00023401
0.00026816
0.00030683
0.00035055
0.00039990
0.00045552
0.00051811
0.00058842
0.00066728
0.00075560
0.00085435
0.00096459
0.00108744
0.00122415
0.00137604
0.00154451
0.00173108
0.00193737
0.00216509
0.00241609
0.00269228
0.00299573
0.00332858
0.00369312
0.00409171
0.00452686
0.00500116
0.00551732
0.00607814
0.00668652
0.00734547
0.00805804
0.00882740
0.00965676
0.01054940
0.01150864
0.01253785
0.01364039
0.01481965
0.01607902
0.01742184
0.01885143
0.02037106
0.02198391
0.02369308
0.02550155
0.02741218
0.02942769
0.03155064
0.03378339
0.03612812
0.03858680
0.04116117
0.04385271
0.04666269
0.04959206
0.05264155
0.05581157
0.05910227
0.06251349
0.06604477
0.06969539
0.07346432
0.07735022
0.08135151
0.08546631
0.08969248
0.09402763
0.09846911
0.10301407
0.10765939
0.11240180
0.11723779
0.12216368
0.12717560
0.13226951
0.13744120
0.14268626
0.14800012
0.15337799
0.15881487
0.16430548
0.16984428
0.17542535
0.18104241
0.18668869
0.19235688
0.19803905
0.20372655
0.20940989
0.21507869
0.22072157
0.22632605
0.23187854
0.23736426
0.24276734
0.24807083
0.25325693
0.25830717
0.26320282
0.26792531
0.27245676
0.27678069
0.28088265
0.28475098
0.28837748
0.29175804
0.29489308
0.29778777
0.30045207
0.30290045
0.30515142
0.30722677
0.30915079
0.31094930
0.31264878
0.31427546
0.31585463
0.31741002
0.31896336
0.32053411
0.32213930
0.32379355
0.32550915
0.32729619
0.32916283
0.33111551
0.33315922
0.33529773
0.33753385
0.33986964
0.34230659
0.34484580
0.34748810
0.35023421
0.35308479
0.35604059
0.35910251
0.36227162
0.36554931
0.36893727
0.37243757
0.37605268
0.37978556
0.38363960
0.38761873
0.39172739
0.39597060
0.40035394
0.40488359
0.40956638
0.41440978
0.41942198
0.42461194
0.42998938
0.43556493
0.44135015
0.44735764
0.45360114
0.46009566
0.46685763
0.47390508
0.48125778
0.48893751
0.49696829
0.50537663
0.51419189
0.52344657
0.53317677
0.54342263
0.55422886
0.56564538
0.57772796
0.59053898
0.60414826
0.61863383
0.63408268
0.65059146
0.66826672
0.68722471
0.70758994
0.72949127
0.75305307
0.77837418
0.80546303
0.83398131
0.86207154
0.88108992
0.85594827
0.70938421
0.51778175
0.35680788
0.23929962
0.15816907
0.10365461
0.06758401
0.04393998
0.02853030
0.01852054
0.01202901
0.00782094
0.00509202
0.00332059
0.00216914
0.00141950
0.00093060
0.00061117
0.00040209
0.00026498
0.00017491
0.00011564
0.00007657
0.00005078
0.00003372
0.00002242
0.00001493
0.00000995
0.00000664
0.00000444
0.00000297
0.00000199
0.00000133
0.00000089
0.00000060
0.00000040
0.00000027
0.00000018
0.00000012
0.00000008
0.00000006
0.00000004
0.00000003
0.00000002
0.00000001
0.00000001
0.00000001
0.00000000
0.00000000
0.00000000
0.00000000
0.00000000
0.00000000
0.00000000
0.00000000
0.00000000
0.00000000
0.00000000
0.00000000
0.00000000
0.00000000
0.00000000
0.00000000
0.00000000
0.00000000
0.00000000
0.00000000
0.00000000
0.00000000
0.00000000
0.00000000
0.00000000
0.00000000
0.00000000
0.00000000
0.00000000
0.00000000
0.00000000
0.00000000
0.00000000
0.00000000
0.00000000
0.00000000
0.00000000
0.00000000
0.00000000
0.00000000
0.00000000
0.00000000
0.00000000
0.00000000
0.00000000
0.00000000
0.00000000
0.00000000
0.00000000
0.00000000
0.00000000
0.00000000
0.00000000
0.00000000
0.00000000
0.00000000
0.00000000
0.00000000
0.00000000
0.00000000
0.00000000