# vtk DataFile Version 3.0
Concentration output
ASCII
DATASET STRUCTURED_POINTS
DIMENSIONS 398 98 1
ORIGIN 0 0 0
SPACING 0.03 0.03 1.0
POINT_DATA 39004
SCALARS concentration float 1
LOOKUP_TABLE default
0.00000000
0.00000000
0.00000000
0.00000000
0.00000000
0.00000000
0.00000000
0.00000000
0.00000000
0.00000000
0.00000001
0.00000001
0.00000001
0.00000002
0.00000002
0.00000003
0.00000004
0.00000005
0.00000007
0.00000009
0.00000012
0.00000015
0.00000020
0.00000026
0.00000033
0.00000043
0.00000056
0.00000072
0.00000092
0.00000118
0.00000150
0.00000191
0.00000242
0.00000306
0.00000386
0.00000485
0.00000607
0.00000758
0.00000944
0.00001172
0.00001450
0.00001789
0.00002201
0.00002699
0.00003301
0.00004025
0.00004893
0.00005930
0.00007167
0.00008636
0.00010375
0.00012427
0.00014843
0.00017675
0.00020987
0.00024847
0.00029332
0.00034525
0.00040520
0.00047419
0.00055333
0.00064383
0.00074698
0.00086420
0.00099696
0.00114687
0.00131559
0.00150491
0.00171665
0.00195274
0.00221514
0.00250588
0.00282701
0.00318061
0.00356873
0.00399345
0.00445676
0.00496062
0.00550691
0.00609738
0.00673367
0.00741727
0.00814950
0.00893149
0.00976415
0.01064817
0.01158403
0.01257192
0.01361182
0.01470342
0.01584617
0.01703929
0.01828173
0.01957224
0.02090936
0.02229143
0.02371665
0.02518305
0.02668858
0.02823106
0.02980826
0.03141789
0.03305758
0.03472493
0.03641745
0.03813255
0.03986748
0.04161927
0.04338467
0.04516003
0.04694119
0.04872345
0.05050137
0.05226886
0.05401907
0.05574456
0.05743748
0.05908991
0.06069436
0.06224436
0.06373516
0.06516447
0.06653304
0.06784512
0.06910862
0.07033489
0.07153826
0.07273524
0.07394372
0.07518209
0.07646854
0.07782054
0.07925464
0.08078644
0.08243083
0.08420243
0.08611620
0.08818813
0.09043615
0.09288106
0.09554780
0.09846684
0.10167604
0.10522306
0.10916876
0.11359196
0.11859655
0.12432250
0.13096400
0.13880062
0.14825214
0.15997158
0.17500126
0.19508638
0.22348778
0.26625042
0.31970552
0.23607060
0.13471461
0.07329910
0.04045434
0.02294274
0.01335143
0.00793734
0.00480028
0.00294365
0.00182594
0.00114366
0.00072235
0.00045963
0.00029442
0.00018974
0.00012297
0.00008012
0.00005246
0.00003451
0.00002281
0.00001514
0.00001010
0.00000676
0.00000454
0.00000306
0.00000208
0.00000141
0.00000096
0.00000066
0.00000045
0.00000031
0.00000021
0.00000015
0.00000010
0.00000007
0.00000005
0.00000003
0.00000002
0.00000002
0.00000001
0.00000001
0.00000001
0.00000000
0.00000000
0.00000000
0.00000000
0.00000000
0.00000000
0.00000000
0.00000000
0.00000000
0.00000000
0.00000000
0.00000000
0.00000000
0.00000000
0.00000000
0.00000000
0.00000000
0.00000000
0.00000000
0.00000000
0.00000000
0.00000000
0.00000000
0.00000000
0.00000000
0.00000000
0.00000000
0.00000000
0.00000000
0.00000000
0.00000000
0.00000000
0.00000000
0.00000000
0.00000000
0.00000000
0.00000000
0.00000000
0.00000000
0.00000000
0.00000000
0.00000000
0.00000000
0.00000000
0.00000000
0.00000000
0.00000000
0.00000000
0.00000000
0.00000000
0.00000000
0.00000000
0.00000000
0.00000000
0.00000000
0.00000000
0.00000000
0.00000000
0.00000000
0.00000000
0.00000000
0.00000000
0.00000000
0.00000000
0.00000000
0.00000000
0.00000000
0.00000000
0.00000000
0.00000000
0.00000000
0.00000000
0.00000000
0.00000000
0.00000000
0.00000000
0.00000000
0.00000000
0.00000000
0.00000000
0.00000000
0.00000000
0.00000000
0.00000000
0.00000000
0.00000000
0.00000000
0.00000000
0.00000000
0.00000000
0.00000000
0.00000000
0.00000000
0.00000000
0.00000000
0.00000000
0.00000000
0.00000000
0.00000000
0.00000000
0.00000000
0.00000000
0.00000000
0.00000000
0.00000000
0.00000000
0.00000000
0.00000000
0.00000000
0.00000000
0.00000000
0.00000000
0.00000000
0.00000000
0.00000000
0.00000000
0.00000000
0.00000000
0.00000000
0.00000000
0.00000000
0.00000000
0.00000000
0.00000000
0.00000000
0.00000000
0.00000000
0.00000000
0.00000000
0.00000000
0.00000000
0.00000000
0.00000000
0.00000000
0.00000000
0.00000000
0.00000000
0.00000000
0.00000000
0.00000000
0.00000000
0.00000000
0.00000000
0.00000000
0.00000000
0.00000000
0.00000000
0.00000000
0.00000000
0.00000000
0.00000000
0.00000000
0.00000000
0.00000000
0.00000000
0.00000000
0.00000000
0.00000000
0.00000000
0.00000000
0.00000000
0.00000000
0.00000000
0.00000000
0.00000000
0.00000000
0.00000000
0.00000000
0.00000000
0.00000000
0.00000000
0.00000000
0.00000000
0.00000000
0.00000000
0.00000000
0.00000000
0.00000000
0.00000000
0.00000000
0.00000000
0.00000000
0.00000000
0.00000000
0.00000000
0.00000000
0.00000000
0.00000000
0.00000000
0.00000000
0.00000000
0.00000000
0.00000000
0.00000000
0.00000000
0.00000000
0.00000000
0.00000000
0.00000000
0.00000000
0.00000000
0.00000000
0.00000000
0.00000000
0.00000000
0.00000000
0.00000001
0.00000001
0.00000001
0.00000001
0.00000002
0.00000002
0.00000003
0.00000004
0.00000006
0.00000008
0.00000010
0.00000013
0.00000018
0.00000023
0.00000030
0.00000040
0.00000051
0.00000067
0.00000086
0.00000112
0.00000144
0.00000184
0.00000236
0.00000300
0.00000382
0.00000484
0.00000612
0.00000771
0.00000968
0.00001212
0.00001514
0.00001885
0.00002339
0.00002895
0.00003572
0.00004394
0.00005389
0.00006591
0.00008036
0.00009769
0.00011840
0.00014309
0.00017241
0.00020713
0.00024811
0.00029633
0.00035289
0.00041901
0.00049607
0.00058560
0.00068928
0.00080896
0.00094670
0.00110469
0.00128536
0.00149129
0.00172529
0.00199033
0.00228959
0.00262642
0.00300435
0.00342705
0.00389834
0.00442216
0.00500254
0.00564358
0.00634942
0.00712418
0.00797197
0.00889679
0.00990254
0.01099295
0.01217153
0.01344156
0.01480599
0.01626745
0.01782818
0.01949001
0.02125432
0.02312202
0.02509351
0.02716872
0.02934704
0.03162737
0.03400809
0.03648715
0.03906202
0.04172977
0.04448709
0.04733034
0.05025564
0.05325884
0.05633562
0.05948153
0.06269200
0.06596234
0.06928778
0.07266340
0.07608409
0.07954444
0.08303864
0.08656029
0.09010223
0.09365631
0.09721320
0.10076221
0.10429115
0.10778634
0.11123275
0.11461439
0.11791499
0.12111894
0.12421256
0.12718554
0.13003247
0.13275416
0.13535867
0.13786160
0.14028577
0.14266014
0.14501825
0.14739634
0.14983160
0.15236061
0.15501831
0.15783748
0.16084878
0.16408115
0.16756277
0.17132215
0.17538960
0.17979887
0.18458902
0.18980663
0.19550847
0.20176469
0.20866316
0.21631519
0.22486352
0.23449391
0.24545243
0.25807250
0.27281930
0.29036236
0.31168307
0.33819677
0.37181195
0.41471125
0.46721130
0.50794423
0.36880299
0.22122322
0.12674625
0.07269504
0.04231195
0.02504987
0.01506561
0.00918567
0.00566658
0.00353101
0.00221959
0.00140605
0.00089686
0.00057568
0.00037167
0.00024125
0.00015740
0.00010319
0.00006797
0.00004497
0.00002988
0.00001994
0.00001336
0.00000899
0.00000607
0.00000411
0.00000280
0.00000191
0.00000130
0.00000090
0.00000062
0.00000042
0.00000029
0.00000020
0.00000014
0.00000010
0.00000007
0.00000005
0.00000003
0.00000002
0.00000002
0.00000001
0.00000001
0.00000001
0.00000000
0.00000000
0.00000000
0.00000000
0.00000000
0.00000000
0.00000000
0.00000000
0.00000000
0.00000000
0.00000000
0.00000000
0.00000000
0.00000000
0.00000000
0.00000000
0.00000000
0.00000000
0.00000000
0.00000000
0.00000000
0.00000000
0.00000000
0.00000000
0.00000000
0.00000000
0.00000000
0.00000000
0.00000000
0.00000000
0.00000000
0.00000000
0.00000000
0.00000000
0.00000000
0.00000000
0.00000000
0.00000000
0.00000000
0.00000000
0.00000000
0.00000000
0.00000000
0.00000000
0.00000000
0.00000000
0.00000000
0.00000000
0.00000000
0.00000000
0.00000000
0.00000000
0.00000000
0.00000000
0.00000000
0.00000000
0.00000000
0.00000000
0.00000000
0.00000000
0.00000000
0.00000000
0.00000000
0.00000000
0.00000000
0.00000000
0.00000000
0.00000000
0.00000000
0.00000000
0.00000000
0.00000000
0.00000000
0.00000000
0.00000000
0.00000000
0.00000000
0.00000000
0.00000000
0.00000000
0.00000000
0.00000000
0.00000000
0.00000000
0.00000000
0.00000000
0.00000000
0.00000000
0.00000000
0.00000000
0.00000000
0.00000000
0.00000000
0.00000000
0.00000000
0.00000000
0.00000000
0.00000000
0.00000000
0.00000000
0.00000000
0.00000000
0.00000000
0.00000000
0.00000000
0.00000000
0.00000000
0.00000000
0.00000000
0.00000000
0.00000000
0.00000000
0.00000000
0.00000000
0.00000000
0.00000000
0.00000000
0.00000000
0.00000000
0.00000000
0.00000000
0.00000000
0.00000000
0.00000000
0.00000000
0.00000000
0.00000000
0.00000000
0.00000000
0.00000000
0.00000000
0.00000000
0.00000000
0.00000000
0.00000000
0.00000000
0.00000000
0.00000000
0.00000000
0.00000000
0.00000000
0.00000000
0.00000000
0.00000000
0.00000000
0.00000000
0.00000000
0.00000000
0.00000000
0.00000000
0.00000000
0.00000000
0.00000000
0.00000000
0.00000000
0.00000000
0.00000000
0.00000000
0.00000000
0.00000000
0.00000000
0.00000000
0.00000000
0.00000000
0.00000000
0.00000000
0.00000000
0.00000000
0.00000000
0.00000000
0.00000000
0.00000000
0.00000000
0.00000000
0.00000000
0.00000000
0.00000000
0.00000000
0.00000000
0.00000000
0.00000000
0.00000000
0.00000000
0.00000000
0.00000000
0.00000000
0.00000000
0.00000000
0.00000000
0.00000000
0.00000000
0.00000000
0.00000000
0.00000000
0.00000000
0.00000000
0.00000000
0.00000000
0.00000000
0.00000000
0.00000000
0.00000000
0.00000000
0.00000001
0.00000001
0.00000001
0.00000001
0.00000002
0.00000003
0.00000004
0.00000005
0.00000006
0.00000009
0.00000011
0.00000015
0.00000020
0.00000026
0.00000035
0.00000045
0.00000059
0.00000077
0.00000100
0.00000129
0.00000167
0.00000215
0.00000275
0.00000352
0.00000449
0.00000571
0.00000724
0.00000915
0.00001153
0.00001448
0.00001813
0.00002264
0.00002819
0.00003499
0.00004330
0.00005342
0.00006572
0.00008061
0.00009858
0.00012019
0.00014611
0.00017709
0.00021401
0.00025787
0.00030980
0.00037109
0.00044321
0.00052779
0.00062668
0.00074194
0.00087583
0.00103089
0.00120989
0.00141587
0.00165216
0.00192234
0.00223032
0.00258025
0.00297661
0.00342414
0.00392785
0.00449300
0.00512510
0.00582985
0.00661314
0.00748100
0.00843955
0.00949496
0.01065342
0.01192103
0.01330380
0.01480753
0.01643780
0.01819986
0.02009857
0.02213836
0.02432313
0.02665622
0.02914035
0.03177756
0.03456918
0.03751582
0.04061731
0.04387273
0.04728040
0.05083790
0.05454209
0.05838919
0.06237477
0.06649386
0.07074102
0.07511039
0.07959578
0.08419072
0.08888858
0.09368254
0.09856567
0.10353090
0.10857100
0.11367848
0.11884545
0.12406346
0.12932321
0.13461432
0.13992494
0.14524143
0.15054803
0.15582665
0.16105672
0.16621541
0.17127807
0.17621918
0.18101383
0.18563957
0.19007882
0.19432136
0.19836663
0.20222546
0.20592076
0.20948706
0.21296870
0.21641728
0.21988851
0.22343925
0.22712498
0.23099811
0.23510716
0.23949674
0.24420834
0.24928158
0.25475596
0.26067294
0.26707823
0.27402441
0.28157382
0.28980198
0.29880159
0.30868770
0.31960430
0.33173323
0.34530647
0.36062340
0.37807582
0.39818584
0.42166235
0.44947201
0.48286992
0.52315646
0.57018983
0.61506032
0.60869955
0.43183393
0.26749097
0.15949212
0.09466054
0.05656859
0.03415522
0.02084518
0.01285144
0.00799641
0.00501688
0.00317111
0.00201803
0.00129221
0.00083220
0.00053883
0.00035065
0.00022929
0.00015063
0.00009939
0.00006587
0.00004384
0.00002929
0.00001965
0.00001324
0.00000895
0.00000607
0.00000413
0.00000282
0.00000193
0.00000133
0.00000091
0.00000063
0.00000044
0.00000030
0.00000021
0.00000014
0.00000010
0.00000007
0.00000005
0.00000003
0.00000002
0.00000002
0.00000001
0.00000001
0.00000001
0.00000000
0.00000000
0.00000000
0.00000000
0.00000000
0.00000000
0.00000000
0.00000000
0.00000000
0.00000000
0.00000000
0.00000000
0.00000000
0.00000000
0.00000000
0.00000000
0.00000000
0.00000000
0.00000000
0.00000000
0.00000000
0.00000000
0.00000000
0.00000000
0.00000000
0.00000000
0.00000000
0.00000000
0.00000000
0.00000000
0.00000000
0.00000000
0.00000000
0.00000000
0.00000000
0.00000000
0.00000000
0.00000000
0.00000000
0.00000000
0.00000000
0.00000000
0.00000000
0.00000000
0.00000000
0.00000000
0.00000000
0.00000000
0.00000000
0.00000000
0.00000000
0.00000000
0.00000000
0.00000000
0.00000000
0.00000000
0.00000000
0.00000000
0.00000000
0.00000000
0.00000000
0.00000000
0.00000000
0.00000000
0.00000000
0.00000000
0.00000000
0.00000000
0.00000000
0.00000000
0.00000000
0.00000000
0.00000000
0.00000000
0.00000000
0.00000000
0.00000000
0.00000000
0.00000000
0.00000000
0.00000000
0.00000000
0.00000000
0.00000000
0.00000000
0.00000000
0.00000000
0.00000000
0.00000000
0.00000000
0.00000000
0.00000000
0.00000000
0.00000000
0.00000000
0.00000000
0.00000000
0.00000000
0.00000000
0.00000000
0.00000000
0.00000000
0.00000000
0.00000000
0.00000000
0.00000000
0.00000000
0.00000000
0.00000000
0.00000000
0.00000000
0.00000000
0.00000000
0.00000000
0.00000000
0.00000000
0.00000000
0.00000000
0.00000000
0.00000000
0.00000000
0.00000000
0.00000000
0.00000000
0.00000000
0.00000000
0.00000000
0.00000000
0.00000000
0.00000000
0.00000000
0.00000000
0.00000000
0.00000000
0.00000000
0.00000000
0.00000000
0.00000000
0.00000000
0.00000000
0.00000000
0.00000000
0.00000000
0.00000000
0.00000000
0.00000000
0.00000000
0.00000000
0.00000000
0.00000000
0.00000000
0.00000000
0.00000000
0.00000000
0.00000000
0.00000000
0.00000000
0.00000000
0.00000000
0.00000000
0.00000000
0.00000000
0.00000000
0.00000000
0.00000000
0.00000000
0.00000000
0.00000000
0.00000000
0.00000000
0.00000000
0.00000000
0.00000000
0.00000000
0.00000000
0.00000000
0.00000000
0.00000000
0.00000000
0.00000000
0.00000000
0.00000000
0.00000000
0.00000000
0.00000000
0.00000000
0.00000000
0.00000000
0.00000000
0.00000000
0.00000000
0.00000000
0.00000000
0.00000000
0.00000000
0.00000000
0.00000000
0.00000000
0.00000000
0.00000000
0.00000000
0.00000001
0.00000001
0.00000001
0.00000001
0.00000002
0.00000003
0.00000004
0.00000005
0.00000006
0.00000009
0.00000011
0.00000015
0.00000020
0.00000026
0.00000035
0.00000046
0.00000060
0.00000078
0.00000102
0.00000133
0.00000172
0.00000222
0.00000285
0.00000366
0.00000468
0.00000597
0.00000759
0.00000961
0.00001215
0.00001531
0.00001923
0.00002408
0.00003007
0.00003744
0.00004647
0.00005750
0.00007095
0.00008728
0.00010705
0.00013091
0.00015961
0.00019403
0.00023518
0.00028420
0.00034244
0.00041140
0.00049279
0.00058856
0.00070087
0.00083219
0.00098523
0.00116302
0.00136891
0.00160659
0.00188010
0.00219383
0.00255258
0.00296149
0.00342611
0.00395236
0.00454654
0.00521530
0.00596562
0.00680480
0.00774043
0.00878030
0.00993241
0.01120489
0.01260592
0.01414369
0.01582632
0.01766174
0.01965767
0.02182147
0.02416011
0.02668001
0.02938703
0.03228632
0.03538229
0.03867851
0.04217766
0.04588146
0.04979068
0.05390505
0.05822331
0.06274316
0.06746134
0.07237364
0.07747497
0.08275940
0.08822029
0.09385037
0.09964183
0.10558642
0.11167557
0.11790047
0.12425214
0.13072148
0.13729926
0.14397608
0.15074227
0.15758775
0.16450174
0.17147243
0.17848664
0.18552928
0.19258287
0.19962703
0.20663802
0.21358852
0.22044759
0.22718120
0.23375337
0.24012796
0.24627141
0.25215612
0.25776426
0.26309146
0.26814967
0.27296849
0.27759456
0.28208898
0.28652324
0.29097443
0.29552068
0.30023732
0.30519441
0.31045552
0.31607782
0.32211307
0.32860949
0.33561399
0.34317487
0.35134466
0.36018322
0.36976104
0.38016288
0.39149195
0.40387477
0.41746730
0.43246256
0.44910045
0.46768034
0.48857713
0.51226204
0.53932802
0.57050917
0.60663208
0.64820441
0.69304340
0.72262176
0.64354256
0.44787411
0.28405038
0.17488045
0.10693613
0.06551860
0.04036128
0.02502990
0.01562993
0.00982619
0.00621724
0.00395758
0.00253351
0.00163055
0.00105473
0.00068555
0.00044766
0.00029362
0.00019342
0.00012795
0.00008499
0.00005668
0.00003795
0.00002551
0.00001721
0.00001165
0.00000791
0.00000539
0.00000369
0.00000253
0.00000174
0.00000120
0.00000083
0.00000057
0.00000040
0.00000028
0.00000019
0.00000013
0.00000009
0.00000006
0.00000004
0.00000003
0.00000002
0.00000001
0.00000001
0.00000001
0.00000000
0.00000000
0.00000000
0.00000000
0.00000000
0.00000000
0.00000000
0.00000000
0.00000000
0.00000000
0.00000000
0.00000000
0.00000000
0.00000000
0.00000000
0.00000000
0.00000000
0.00000000
0.00000000
0.00000000
0.00000000
0.00000000
0.00000000
0.00000000
0.00000000
0.00000000
0.00000000
0.00000000
0.00000000
0.00000000
0.00000000
0.00000000
0.00000000
0.00000000
0.00000000
0.00000000
0.00000000
0.00000000
0.00000000
0.00000000
0.00000000
0.00000000
0.00000000
0.00000000
0.00000000
0.00000000
0.00000000
0.00000000
0.00000000
0.00000000
0.00000000
0.00000000
0.00000000
0.00000000
0.00000000
0.00000000
0.00000000
0.00000000
0.00000000
0.00000000
0.00000000
0.00000000
0.00000000
0.00000000
0.00000000
0.00000000
0.00000000
0.00000000
0.00000000
0.00000000
0.00000000
0.00000000
0.00000000
0.00000000
0.00000000
0.00000000
0.00000000
0.00000000
0.00000000
0.00000000
0.00000000
0.00000000
0.00000000
0.00000000
0.00000000
0.00000000
0.00000000
0.00000000
0.00000000
0.00000000
0.00000000
0.00000000
0.00000000
0.00000000
0.00000000
0.00000000
0.00000000
0.00000000
0.00000000
0.00000000
0.00000000
0.00000000
0.00000000
0.00000000
0.00000000
0.00000000
0.00000000
0.00000000
0.00000000
0.00000000
0.00000000
0.00000000
0.00000000
0.00000000
0.00000000
0.00000000
0.00000000
0.00000000
0.00000000
0.00000000
0.00000000
0.00000000
0.00000000
0.00000000
0.00000000
0.00000000
0.00000000
0.00000000
0.00000000
0.00000000
0.00000000
0.00000000
0.00000000
0.00000000
0.00000000
0.00000000
0.00000000
0.00000000
0.00000000
0.00000000
0.00000000
0.00000000
0.00000000
0.00000000
0.00000000
0.00000000
0.00000000
0.00000000
0.00000000
0.00000000
0.00000000
0.00000000
0.00000000
0.00000000
0.00000000
0.00000000
0.00000000
0.00000000
0.00000000
0.00000000
0.00000000
0.00000000
0.00000000
0.00000000
0.00000000
0.00000000
0.00000000
0.00000000
0.00000000
0.00000000
0.00000000
0.00000000
0.00000000
0.00000000
0.00000000
0.00000000
0.00000000
0.00000000
0.00000000
0.00000000
0.00000000
0.00000000
0.00000000
0.00000000
0.00000000
0.00000000
0.00000000
0.00000000
0.00000000
0.00000000
0.00000000
0.00000000
0.00000000
0.00000000
0.00000000
0.00000000
0.00000000
0.00000000
0.00000000
0.00000000
0.00000000
0.00000001
0.00000001
0.00000001
0.00000002
0.00000002
0.00000003
0.00000004
0.00000006
0.00000008
0.00000011
0.00000014
0.00000019
0.00000025
0.00000033
0.00000043
0.00000057
0.00000075
0.00000098
0.00000127
0.00000165
0.00000214
0.00000276
0.00000355
0.00000455
0.00000582
0.00000742
0.00000943
0.00001196
0.00001511
0.00001904
0.00002391
0.00002995
0.00003740
0.00004656
0.00005779
0.00007151
0.00008824
0.00010854
0.00013313
0.00016280
0.00019849
0.00024130
0.00029246
0.00035343
0.00042585
0.00051160
0.00061281
0.00073189
0.00087155
0.00103484
0.00122513
0.00144620
0.00170220
0.00199773
0.00233780
0.00272788
0.00317392
0.00368232
0.00425997
0.00491424
0.00565295
0.00648435
0.00741713
0.00846036
0.00962345
0.01091609
0.01234822
0.01392992
0.01567136
0.01758270
0.01967401
0.02195513
0.02443563
0.02712465
0.03003079
0.03316203
0.03652560
0.04012786
0.04397426
0.04806916
0.05241585
0.05701641
0.06187172
0.06698137
0.07234372
0.07795584
0.08381359
0.08991164
0.09624357
0.10280194
0.10957842
0.11656387
0.12374854
0.13112213
0.13867398
0.14639318
0.15426863
0.16228916
0.17044353
0.17872037
0.18710813
0.19559484
0.20416780
0.21281326
0.22151579
0.23025776
0.23901854
0.24777379
0.25649471
0.26514743
0.27369279
0.28208661
0.29028080
0.29822557
0.30587285
0.31318101
0.32012042
0.32667916
0.33286768
0.33872129
0.34429954
0.34968248
0.35496453
0.36024730
0.36563277
0.37121776
0.37709043
0.38332873
0.39000059
0.39716541
0.40487646
0.41318381
0.42213757
0.43179121
0.44220496
0.45344922
0.46560809
0.47878302
0.49309680
0.50869801
0.52576613
0.54451730
0.56521036
0.58815252
0.61370277
0.64226756
0.67426545
0.70995128
0.74856143
0.78400774
0.78365235
0.63119429
0.43356526
0.28035837
0.17730219
0.11128708
0.06977158
0.04382683
0.02762462
0.01748535
0.01111779
0.00710188
0.00455752
0.00293798
0.00190234
0.00123708
0.00080786
0.00052974
0.00034877
0.00023054
0.00015299
0.00010192
0.00006815
0.00004574
0.00003082
0.00002083
0.00001413
0.00000962
0.00000657
0.00000450
0.00000309
0.00000213
0.00000147
0.00000101
0.00000070
0.00000049
0.00000034
0.00000024
0.00000016
0.00000011
0.00000008
0.00000006
0.00000004
0.00000003
0.00000002
0.00000001
0.00000001
0.00000001
0.00000000
0.00000000
0.00000000
0.00000000
0.00000000
0.00000000
0.00000000
0.00000000
0.00000000
0.00000000
0.00000000
0.00000000
0.00000000
0.00000000
0.00000000
0.00000000
0.00000000
0.00000000
0.00000000
0.00000000
0.00000000
0.00000000
0.00000000
0.00000000
0.00000000
0.00000000
0.00000000
0.00000000
0.00000000
0.00000000
0.00000000
0.00000000
0.00000000
0.00000000
0.00000000
0.00000000
0.00000000
0.00000000
0.00000000
0.00000000
0.00000000
0.00000000
0.00000000
0.00000000
0.00000000
0.00000000
0.00000000
0.00000000
0.00000000
0.00000000
0.00000000
0.00000000
0.00000000
0.00000000
0.00000000
0.00000000
0.00000000
0.00000000
0.00000000
0.00000000
0.00000000
0.00000000
0.00000000
0.00000000
0.00000000
0.00000000
0.00000000
0.00000000
0.00000000
0.00000000
0.00000000
0.00000000
0.00000000
0.00000000
0.00000000
0.00000000
0.00000000
0.00000000
0.00000000
0.00000000
0.00000000
0.00000000
0.00000000
0.00000000
0.00000000
0.00000000
0.00000000
0.00000000
0.00000000
0.00000000
0.00000000
0.00000000
0.00000000
0.00000000
0.00000000
0.00000000
0.00000000
0.00000000
0.00000000
0.00000000
0.00000000
0.00000000
0.00000000
0.00000000
0.00000000
0.00000000
0.00000000
0.00000000
0.00000000
0.00000000
0.00000000
0.00000000
0.00000000
0.00000000
0.00000000
0.00000000
0.00000000
0.00000000
0.00000000
0.00000000
0.00000000
0.00000000
0.00000000
0.00000000
0.00000000
0.00000000
0.00000000
0.00000000
0.00000000
0.00000000
0.00000000
0.00000000
0.00000000
0.00000000
0.00000000
0.00000000
0.00000000
0.00000000
0.00000000
0.00000000
0.00000000
0.00000000
0.00000000
0.00000000
0.00000000
0.00000000
0.00000000
0.00000000
0.00000000
0.00000000
0.00000000
0.00000000
0.00000000
0.00000000
0.00000000
0.00000000
0.00000000
0.00000000
0.00000000
0.00000000
0.00000000
0.00000000
0.00000000
0.00000000
0.00000000
0.00000000
0.00000000
0.00000000
0.00000000
0.00000000
0.00000000
0.00000000
0.00000000
0.00000000
0.00000000
0.00000000
0.00000000
0.00000000
0.00000000
0.00000000
0.00000000
0.00000000
0.00000000
0.00000000
0.00000000
0.00000000
0.00000000
0.00000000
0.00000000
0.00000000
0.00000000
0.00000000
0.00000000
0.00000000
0.00000000
0.00000000
0.00000000
0.00000000
0.00000000
0.00000001
0.00000001
0.00000001
0.00000002
0.00000002
0.00000003
0.00000004
0.00000005
0.00000007
0.00000009
0.00000013
0.00000017
0.00000022
0.00000030
0.00000039
0.00000052
0.00000068
0.00000089
0.00000116
0.00000152
0.00000197
0.00000255
0.00000329
0.00000423
0.00000543
0.00000694
0.00000885
0.00001125
0.00001426
0.00001802
0.00002271
0.00002852
0.00003572
0.00004460
0.00005552
0.00006892
0.00008528
0.00010523
0.00012944
0.00015876
0.00019415
0.00023671
0.00028775
0.00034876
0.00042146
0.00050782
0.00061007
0.00073075
0.00087274
0.00103928
0.00123397
0.00146086
0.00172445
0.00202968
0.00238203
0.00278748
0.00325255
0.00378432
0.00439043
0.00507909
0.00585907
0.00673968
0.00773077
0.00884268
0.01008622
0.01147259
0.01301333
0.01472027
0.01660541
0.01868086
0.02095870
0.02345090
0.02616918
0.02912491
0.03232892
0.03579144
0.03952192
0.04352893
0.04782000
0.05240153
0.05727867
0.06245524
0.06793364
0.07371482
0.07979819
0.08618167
0.09286166
0.09983310
0.10708951
0.11462311
0.12242490
0.13048483
0.13879190
0.14733438
0.15609994
0.16507585
0.17424912
0.18360662
0.19313523
0.20282185
0.21265339
0.22261669
0.23269831
0.24288420
0.25315923
0.26350657
0.27390690
0.28433744
0.29477089
0.30517427
0.31550785
0.32572435
0.33576878
0.34557923
0.35508915
0.36423153
0.37294508
0.38118227
0.38891796
0.39615715
0.40293938
0.40933837
0.41545669
0.42141647
0.42734873
0.43338330
0.43964107
0.44622922
0.45323943
0.46074839
0.46882004
0.47750879
0.48686318
0.49692979
0.50775696
0.51939845
0.53191675
0.54538625
0.55989607
0.57555274
0.59248263
0.61083412
0.63077912
0.65251316
0.67625256
0.70222505
0.73064224
0.76160276
0.79467000
0.82677305
0.84190661
0.77388404
0.58428906
0.40050986
0.26388764
0.17088070
0.10977397
0.07028446
0.04496983
0.02879986
0.01848043
0.01188965
0.00767251
0.00496736
0.00322698
0.00210371
0.00137630
0.00090364
0.00059543
0.00039375
0.00026133
0.00017406
0.00011635
0.00007805
0.00005254
0.00003549
0.00002406
0.00001636
0.00001116
0.00000763
0.00000524
0.00000360
0.00000249
0.00000172
0.00000119
0.00000082
0.00000057
0.00000040
0.00000028
0.00000019
0.00000013
0.00000009
0.00000007
0.00000005
0.00000003
0.00000002
0.00000002
0.00000001
0.00000001
0.00000001
0.00000000
0.00000000
0.00000000
0.00000000
0.00000000
0.00000000
0.00000000
0.00000000
0.00000000
0.00000000
0.00000000
0.00000000
0.00000000
0.00000000
0.00000000
0.00000000
0.00000000
0.00000000
0.00000000
0.00000000
0.00000000
0.00000000
0.00000000
0.00000000
0.00000000
0.00000000
0.00000000
0.00000000
0.00000000
0.00000000
0.00000000
0.00000000
0.00000000
0.00000000
0.00000000
0.00000000
0.00000000
0.00000000
0.00000000
0.00000000
0.00000000
0.00000000
0.00000000
0.00000000
0.00000000
0.00000000
0.00000000
0.00000000
0.00000000
0.00000000
0.00000000
0.00000000
0.00000000
0.00000000
0.00000000
0.00000000
0.00000000
0.00000000
0.00000000
0.00000000
0.00000000
0.00000000
0.00000000
0.00000000
0.00000000
0.00000000
0.00000000
0.00000000
0.00000000
0.00000000
0.00000000
0.00000000
0.00000000
0.00000000
0.00000000
0.00000000
0.00000000
0.00000000
0.00000000
0.00000000
0.00000000
0.00000000
0.00000000
0.00000000
0.00000000
0.00000000
0.00000000
0.00000000
0.00000000
0.00000000
0.00000000
0.00000000
0.00000000
0.00000000
0.00000000
0.00000000
0.00000000
0.00000000
0.00000000
0.00000000
0.00000000
0.00000000
0.00000000
0.00000000
0.00000000
0.00000000
0.00000000
0.00000000
0.00000000
0.00000000
0.00000000
0.00000000
0.00000000
0.00000000
0.00000000
0.00000000
0.00000000
0.00000000
0.00000000
0.00000000
0.00000000
0.00000000
0.00000000
0.00000000
0.00000000
0.00000000
0.00000000
0.00000000
0.00000000
0.00000000
0.00000000
0.00000000
0.00000000
0.00000000
0.00000000
0.00000000
0.00000000
0.00000000
0.00000000
0.00000000
0.00000000
0.00000000
0.00000000
0.00000000
0.00000000
0.00000000
0.00000000
0.00000000
0.00000000
0.00000000
0.00000000
0.00000000
0.00000000
0.00000000
0.00000000
0.00000000
0.00000000
0.00000000
0.00000000
0.00000000
0.00000000
0.00000000
0.00000000
0.00000000
0.00000000
0.00000000
0.00000000
0.00000000
0.00000000
0.00000000
0.00000000
0.00000000
0.00000000
0.00000000
0.00000000
0.00000000
0.00000000
0.00000000
0.00000000
0.00000000
0.00000000
0.00000000
0.00000000
0.00000000
0.00000000
0.00000000
0.00000000
0.00000000
0.00000000
0.00000000
0.00000000
0.00000000
0.00000000
0.00000000
0.00000000
0.00000000
0.00000000
0.00000000
0.00000001
0.00000001
0.00000001
0.00000002
0.00000002
0.00000003
0.00000004
0.00000006
0.00000008
0.00000011
0.00000015
0.00000020
0.00000026
0.00000034
0.00000046
0.00000060
0.00000079
0.00000103
0.00000135
0.00000176
0.00000228
0.00000295
0.00000381
0.00000490
0.00000629
0.00000804
0.00001025
0.00001303
0.00001652
0.00002087
0.00002630
0.00003303
0.00004137
0.00005166
0.00006431
0.00007982
0.00009878
0.00012187
0.00014992
0.00018387
0.00022485
0.00027414
0.00033325
0.00040391
0.00048810
0.00058810
0.00070651
0.00084626
0.00101068
0.00120352
0.00142896
0.00169168
0.00199689
0.00235031
0.00275829
0.00322773
0.00376619
0.00438186
0.00508358
0.00588085
0.00678382
0.00780326
0.00895057
0.01023770
0.01167715
0.01328187
0.01506522
0.01704085
0.01922264
0.02162458
0.02426062
0.02714458
0.03028999
0.03370994
0.03741695
0.04142279
0.04573833
0.05037340
0.05533665
0.06063538
0.06627547
0.07226122
0.07859530
0.08527865
0.09231046
0.09968818
0.10740747
0.11546230
0.12384501
0.13254640
0.14155589
0.15086165
0.16045081
0.17030965
0.18042379
0.19077843
0.20135854
0.21214905
0.22313498
0.23430153
0.24563415
0.25711840
0.26873983
0.28048360
0.29233399
0.30427370
0.31628286
0.32833786
0.34040986
0.35246312
0.36445322
0.37632549
0.38801391
0.39944112
0.41052037
0.42116005
0.43127164
0.44078084
0.44964089
0.45784513
0.46543504
0.47250063
0.47917255
0.48560812
0.49197515
0.49843730
0.50514331
0.51222083
0.51977464
0.52788797
0.53662586
0.54603957
0.55617125
0.56705858
0.57873902
0.59125361
0.60465025
0.61898633
0.63433079
0.65076539
0.66838524
0.68729833
0.70762355
0.72948623
0.75300887
0.77828983
0.80533845
0.83381352
0.86187305
0.88097908
0.85661112
0.71119025
0.51971363
0.35837668
0.24048224
0.15904261
0.10430195
0.06806778
0.04430591
0.02881062
0.01873778
0.01219895
0.00795482
0.00519795
0.00340462
0.00223585
0.00147242
0.00097251
0.00064428
0.00042817
0.00028546
0.00019093
0.00012812
0.00008626
0.00005827
0.00003948
0.00002684
0.00001830
0.00001252
0.00000859
0.00000590
0.00000407
0.00000281
0.00000195
0.00000135
0.00000094
0.00000065
0.00000045
0.00000032
0.00000022
0.00000015
0.00000011
0.00000007
0.00000005
0.00000004
0.00000003
0.00000002
0.00000001
0.00000001
0.00000001
0.00000000
0.00000000
0.00000000
0.00000000
0.00000000
0.00000000
0.00000000
0.00000000
0.00000000
0.00000000
0.00000000
0.00000000
0.00000000
0.00000000
0.00000000
0.00000000
0.00000000
0.00000000
0.00000000
0.00000000
0.00000000
0.00000000
0.00000000
0.00000000
0.00000000
0.00000000
0.00000000
0.00000000
0.00000000
0.00000000
0.00000000
0.00000000
0.00000000
0.00000000
0.00000000
0.00000000
0.00000000
0.00000000
0.00000000
0.00000000
0.00000000
0.00000000
0.00000000
0.00000000
0.00000000
0.00000000
0.00000000
0.00000000
0.00000000
0.00000000
0.00000000
0.00000000
0.00000000
0.00000000
0.00000000
0.00000000
0.00000000
0.00000000
0.00000000
0.00000000
0.00000000
0.00000000
0.00000000
0.00000000
0.00000000
0.00000000
0.00000000
0.00000000
0.00000000
0.00000000
0.00000000
0.00000000
0.00000000
0.00000000
0.00000000
0.00000000
0.00000000
0.00000000
0.00000000
0.00000000
0.00000000
0.00000000
0.00000000
0.00000000
0.00000000
0.00000000
0.00000000
0.00000000
0.00000000
0.00000000
0.00000000
0.00000000
0.00000000
0.00000000
0.00000000
0.00000000
0.00000000
0.00000000
0.00000000
0.00000000
0.00000000
0.00000000
0.00000000
0.00000000
0.00000000
0.00000000
0.00000000
0.00000000
0.00000000
0.00000000
0.00000000
0.00000000
0.00000000
0.00000000
0.00000000
0.00000000