# vtk DataFile Version 3.0
Concentration output
ASCII
DATASET STRUCTURED_POINTS
DIMENSIONS 398 98 1
ORIGIN 0 0 0
SPACING 0.03 0.03 1.0
POINT_DATA 39004
SCALARS concentration float 1
LOOKUP_TABLE default
0.00003032
0.00006021
0.00009040
0.00012069
0.00015111
0.00018170
0.00021249
0.00024351
0.00027479
0.00030637
0.00033828
0.00037056
0.00040323
0.00043633
0.00046989
0.00050395
0.00053853
0.00057366
0.00060939
0.00064573
0.00068273
0.00072041
0.00075881
0.00079795
0.00083786
0.00087858
0.00092014
0.00096257
0.00100588
0.00105013
0.00109533
0.00114151
0.00118870
0.00123693
0.00128623
0.00133663
0.00138814
0.00144081
0.00149465
0.00154969
0.00160597
0.00166349
0.00172230
0.00178240
0.00184384
0.00190663
0.00197079
0.00203635
0.00210333
0.00217176
0.00224165
0.00231302
0.00238591
0.00246033
0.00253629
0.00261382
0.00269294
0.00277367
0.00285602
0.00294002
0.00302568
0.00311301
0.00320204
0.00329279
0.00338525
0.00347946
0.00357543
0.00367316
0.00377268
0.00387400
0.00397713
0.00408208
0.00418886
0.00429749
0.00440797
0.00452032
0.00463455
0.00475065
0.00486866
0.00498856
0.00511037
0.00523409
0.00535973
0.00548730
0.00561679
0.00574822
0.00588158
0.00601688
0.00615411
0.00629329
0.00643440
0.00657744
0.00672242
0.00686933
0.00701816
0.00716891
0.00732156
0.00747612
0.00763257
0.00779089
0.00795108
0.00811312
0.00827699
0.00844268
0.00861016
0.00877941
0.00895040
0.00912311
0.00929751
0.00947357
0.00965126
0.00983052
0.01001134
0.01019366
0.01037744
0.01056262
0.01074917
0.01093702
0.01112612
0.01131640
0.01150780
0.01170024
0.01189367
0.01208799
0.01228314
0.01247902
0.01267555
0.01287264
0.01307018
0.01326809
0.01346626
0.01366458
0.01386294
0.01406123
0.01425932
0.01445710
0.01465444
0.01485122
0.01504730
0.01524255
0.01543684
0.01563003
0.01582198
0.01601256
0.01620162
0.01638902
0.01657463
0.01675830
0.01693989
0.01711927
0.01729631
0.01747086
0.01764281
0.01781202
0.01797837
0.01814175
0.01830205
0.01845916
0.01861298
0.01876342
0.01891039
0.01905382
0.01919364
0.01932977
0.01946218
0.01959081
0.01971563
0.01983662
0.01995375
0.02006701
0.02017642
0.02028197
0.02038368
0.02048159
0.02057573
0.02066613
0.02075286
0.02083597
0.02091553
0.02099160
0.02106428
0.02113364
0.02119977
0.02126276
0.02132272
0.02137974
0.02143393
0.02148540
0.02153426
0.02158060
0.02162456
0.02166623
0.02170573
0.02174317
0.02177866
0.02181231
0.02184422
0.02187450
0.02190326
0.02193060
0.02195661
0.02198139
0.02200503
0.02202762
0.02204925
0.02207000
0.02208995
0.02210917
0.02212773
0.02214571
0.02216317
0.02218017
0.02219676
0.02221300
0.02222894
0.02224463
0.02226011
0.02227541
0.02229058
0.02230565
0.02232065
0.02233560
0.02235053
0.02236546
0.02238041
0.02239539
0.02241043
0.02242553
0.02244070
0.02245595
0.02247128
0.02248671
0.02250224
0.02251786
0.02253359
0.02254941
0.02256534
0.02258137
0.02259751
0.02261374
0.02263006
0.02264649
0.02266301
0.02267962
0.02269632
0.02271310
0.02272998
0.02274693
0.02276397
0.02278109
0.02279829
0.02281557
0.02283293
0.02285036
0.02286787
0.02288546
0.02290312
0.02292086
0.02293867
0.02295656
0.02297453
0.02299257
0.02301070
0.02302890
0.02304718
0.02306554
0.02308397
0.02310249
0.02312109
0.02313977
0.02315853
0.02317737
0.02319628
0.02321528
0.02323435
0.02325350
0.02327273
0.02329203
0.02331140
0.02333085
0.02335036
0.02336994
0.02338958
0.02340929
0.02342906
0.02344888
0.02346876
0.02348869
0.02350866
0.02352868
0.02354874
0.02356883
0.02358895
0.02360909
0.02362925
0.02364941
0.02366957
0.02368972
0.02370984
0.02372992
0.02374995
0.02376992
0.02378980
0.02380957
0.02382922
0.02384872
0.02386805
0.02388716
0.02390604
0.02392465
0.02394294
0.02396088
0.02397842
0.02399551
0.02401209
0.02402811
0.02404350
0.02405818
0.02407208
0.02408511
0.02409719
0.02410821
0.02411806
0.02412662
0.02413377
0.02413937
0.02414327
0.02414530
0.02414530
0.02414307
0.02413842
0.02413113
0.02412097
0.02410769
0.02409103
0.02407070
0.02404641
0.02401784
0.02398466
0.02394650
0.02390300
0.02385377
0.02379839
0.02373644
0.02366747
0.02359101
0.02350658
0.02341369
0.02331182
0.02320046
0.02307908
0.02294713
0.02280408
0.02264937
0.02248245
0.02230279
0.02210985
0.02190310
0.02168203
0.02144614
0.02119497
0.02092806
0.02064500
0.02034541
0.02002894
0.01969527
0.01934416
0.01897538
0.01858876
0.01818419
0.01776159
0.01732097
0.01686237
0.01638589
0.01589168
0.01537997
0.01485102
0.01430517
0.01374278
0.01316429
0.01257019
0.01196100
0.01133731
0.01069974
0.01004895
0.00938565
0.00871057
0.00802451
0.00732825
0.00662264
0.00590854
0.00518684
0.00445844
0.00372426
0.00298525
0.00224235
0.00149653
0.00075458
0.00006062
0.00012036
0.00018071
0.00024126
0.00030207
0.00036322
0.00042476
0.00048677
0.00054930
0.00061243
0.00067623
0.00074075
0.00080606
0.00087222
0.00093931
0.00100738
0.00107651
0.00114675
0.00121816
0.00129081
0.00136477
0.00144009
0.00151685
0.00159509
0.00167488
0.00175628
0.00183935
0.00192415
0.00201075
0.00209919
0.00218954
0.00228186
0.00237619
0.00247261
0.00257116
0.00267190
0.00277488
0.00288016
0.00298779
0.00309782
0.00321031
0.00332530
0.00344285
0.00356300
0.00368581
0.00381132
0.00393958
0.00407063
0.00420453
0.00434131
0.00448102
0.00462371
0.00476941
0.00491816
0.00507001
0.00522500
0.00538316
0.00554454
0.00570916
0.00587707
0.00604830
0.00622289
0.00640086
0.00658225
0.00676709
0.00695541
0.00714725
0.00734262
0.00754156
0.00774410
0.00795025
0.00816005
0.00837351
0.00859066
0.00881152
0.00903611
0.00926444
0.00949655
0.00973244
0.00997213
0.01021563
0.01046295
0.01071411
0.01096912
0.01122799
0.01149072
0.01175731
0.01202778
0.01230213
0.01258035
0.01286244
0.01314840
0.01343822
0.01373191
0.01402943
0.01433079
0.01463597
0.01494495
0.01525771
0.01557422
0.01589446
0.01621840
0.01654601
0.01687724
0.01721206
0.01755042
0.01789228
0.01823757
0.01858624
0.01893822
0.01929345
0.01965186
0.02001336
0.02037788
0.02074531
0.02111556
0.02148854
0.02186412
0.02224220
0.02262265
0.02300534
0.02339013
0.02377688
0.02416543
0.02455563
0.02494731
0.02534029
0.02573439
0.02612941
0.02652517
0.02692145
0.02731803
0.02771471
0.02811124
0.02850739
0.02890292
0.02929759
0.02969113
0.03008329
0.03047380
0.03086239
0.03124879
0.03163272
0.03201391
0.03239208
0.03276693
0.03313820
0.03350561
0.03386887
0.03422771
0.03458187
0.03493107
0.03527506
0.03561359
0.03594642
0.03627330
0.03659403
0.03690838
0.03721616
0.03751718
0.03781127
0.03809828
0.03837806
0.03865049
0.03891547
0.03917290
0.03942270
0.03966484
0.03989927
0.04012597
0.04034494
0.04055621
0.04075981
0.04095579
0.04114423
0.04132520
0.04149882
0.04166520
0.04182447
0.04197677
0.04212227
0.04226113
0.04239353
0.04251966
0.04263971
0.04275388
0.04286239
0.04296544
0.04306326
0.04315606
0.04324406
0.04332750
0.04340658
0.04348154
0.04355259
0.04361995
0.04368383
0.04374445
0.04380202
0.04385673
0.04390878
0.04395836
0.04400566
0.04405085
0.04409411
0.04413560
0.04417548
0.04421391
0.04425102
0.04428695
0.04432183
0.04435578
0.04438892
0.04442136
0.04445319
0.04448451
0.04451541
0.04454596
0.04457623
0.04460631
0.04463623
0.04466607
0.04469586
0.04472566
0.04475549
0.04478540
0.04481540
0.04484554
0.04487581
0.04490625
0.04493687
0.04496767
0.04499867
0.04502987
0.04506127
0.04509287
0.04512469
0.04515670
0.04518892
0.04522134
0.04525396
0.04528677
0.04531977
0.04535296
0.04538632
0.04541986
0.04545358
0.04548746
0.04552151
0.04555573
0.04559010
0.04562463
0.04565931
0.04569415
0.04572914
0.04576428
0.04579958
0.04583503
0.04587063
0.04590638
0.04594228
0.04597834
0.04601456
0.04605093
0.04608746
0.04612415
0.04616100
0.04619800
0.04623517
0.04627250
0.04630998
0.04634763
0.04638543
0.04642339
0.04646151
0.04649978
0.04653820
0.04657677
0.04661548
0.04665434
0.04669333
0.04673246
0.04677171
0.04681109
0.04685060
0.04689021
0.04692994
0.04696976
0.04700968
0.04704968
0.04708977
0.04712991
0.04717012
0.04721036
0.04725064
0.04729093
0.04733121
0.04737146
0.04741167
0.04745180
0.04749183
0.04753173
0.04757145
0.04761097
0.04765024
0.04768920
0.04772782
0.04776602
0.04780375
0.04784094
0.04787750
0.04791336
0.04794842
0.04798258
0.04801573
0.04804775
0.04807851
0.04810786
0.04813566
0.04816173
0.04818588
0.04820792
0.04822763
0.04824477
0.04825909
0.04827032
0.04827815
0.04828226
0.04828230
0.04827791
0.04826867
0.04825417
0.04823393
0.04820746
0.04817424
0.04813370
0.04808525
0.04802825
0.04796203
0.04788589
0.04779907
0.04770079
0.04759024
0.04746654
0.04732882
0.04717613
0.04700751
0.04682198
0.04661852
0.04639607
0.04615358
0.04588997
0.04560414
0.04529500
0.04496146
0.04460242
0.04421681
0.04380358
0.04336170
0.04289018
0.04238808
0.04185450
0.04128860
0.04068962
0.04005686
0.03938971
0.03868764
0.03795021
0.03717709
0.03636804
0.03552294
0.03464177
0.03372461
0.03277169
0.03178330
0.03075989
0.02970200
0.02861028
0.02748549
0.02632849
0.02514027
0.02392187
0.02267447
0.02139930
0.02009770
0.01877108
0.01742093
0.01604879
0.01465627
0.01324506
0.01181687
0.01037348
0.00891669
0.00744836
0.00597036
0.00448459
0.00299299
0.00150913
0.00009085
0.00018039
0.00027084
0.00036159
0.00045273
0.00054437
0.00063660
0.00072954
0.00082326
0.00091788
0.00101349
0.00111018
0.00120807
0.00130723
0.00140778
0.00150981
0.00161341
0.00171867
0.00182570
0.00193459
0.00204544
0.00215833
0.00227336
0.00239062
0.00251020
0.00263220
0.00275671
0.00288381
0.00301359
0.00314614
0.00328155
0.00341991
0.00356130
0.00370580
0.00385350
0.00400448
0.00415882
0.00431661
0.00447792
0.00464283
0.00481142
0.00498376
0.00515994
0.00534002
0.00552407
0.00571218
0.00590441
0.00610083
0.00630151
0.00650651
0.00671590
0.00692975
0.00714812
0.00737106
0.00759865
0.00783094
0.00806798
0.00830984
0.00855658
0.00880823
0.00906486
0.00932652
0.00959326
0.00986512
0.01014216
0.01042441
0.01071192
0.01100474
0.01130291
0.01160646
0.01191544
0.01222987
0.01254980
0.01287526
0.01320629
0.01354290
0.01388513
0.01423300
0.01458655
0.01494579
0.01531075
0.01568145
0.01605789
0.01644010
0.01682809
0.01722188
0.01762146
0.01802685
0.01843805
0.01885505
0.01927787
0.01970648
0.02014089
0.02058108
0.02102704
0.02147875
0.02193618
0.02239931
0.02286810
0.02334253
0.02382256
0.02430813
0.02479920
0.02529571
0.02579760
0.02630480
0.02681724
0.02733484
0.02785751
0.02838516
0.02891769
0.02945497
0.02999691
0.03054336
0.03109420
0.03164928
0.03220844
0.03277153
0.03333836
0.03390876
0.03448253
0.03505946
0.03563934
0.03622193
0.03680700
0.03739431
0.03798357
0.03857453
0.03916690
0.03976037
0.04035464
0.04094939
0.04154428
0.04213898
0.04273312
0.04332636
0.04391831
0.04450859
0.04509682
0.04568259
0.04626551
0.04684516
0.04742113
0.04799300
0.04856035
0.04912276
0.04967981
0.05023108
0.05077615
0.05131461
0.05184606
0.05237010
0.05288634
0.05339441
0.05389393
0.05438456
0.05486596
0.05533782
0.05579983
0.05625171
0.05669322
0.05712410
0.05754416
0.05795320
0.05835106
0.05873761
0.05911273
0.05947635
0.05982840
0.06016887
0.06049775
0.06081507
0.06112089
0.06141527
0.06169834
0.06197021
0.06223103
0.06248100
0.06272029
0.06294913
0.06316775
0.06337640
0.06357535
0.06376488
0.06394528
0.06411686
0.06427992
0.06443479
0.06458179
0.06472125
0.06485350
0.06497888
0.06509772
0.06521035
0.06531711
0.06541831
0.06551429
0.06560535
0.06569180
0.06577396
0.06585211
0.06592654
0.06599753
0.06606534
0.06613024
0.06619247
0.06625227
0.06630986
0.06636547
0.06641930
0.06647153
0.06652237
0.06657197
0.06662051
0.06666813
0.06671498
0.06676118
0.06680686
0.06685212
0.06689707
0.06694180
0.06698639
0.06703092
0.06707545
0.06712003
0.06716473
0.06720958
0.06725462
0.06729989
0.06734540
0.06739118
0.06743724
0.06748360
0.06753027
0.06757724
0.06762453
0.06767213
0.06772005
0.06776827
0.06781680
0.06786563
0.06791475
0.06796416
0.06801385
0.06806382
0.06811405
0.06816454
0.06821529
0.06826629
0.06831754
0.06836903
0.06842075
0.06847270
0.06852489
0.06857731
0.06862996
0.06868283
0.06873593
0.06878926
0.06884282
0.06889660
0.06895062
0.06900487
0.06905936
0.06911408
0.06916903
0.06922423
0.06927966
0.06933534
0.06939125
0.06944741
0.06950380
0.06956043
0.06961729
0.06967439
0.06973172
0.06978927
0.06984704
0.06990504
0.06996324
0.07002165
0.07008026
0.07013907
0.07019806
0.07025724
0.07031658
0.07037608
0.07043573
0.07049553
0.07055545
0.07061549
0.07067562
0.07073584
0.07079612
0.07085644
0.07091678
0.07097712
0.07103741
0.07109763
0.07115774
0.07121770
0.07127746
0.07133696
0.07139616
0.07145498
0.07151335
0.07157119
0.07162843
0.07168495
0.07174067
0.07179545
0.07184918
0.07190172
0.07195291
0.07200259
0.07205059
0.07209670
0.07214071
0.07218239
0.07222149
0.07225772
0.07229080
0.07232039
0.07234614
0.07236768
0.07238458
0.07239641
0.07240267
0.07240286
0.07239641
0.07238272
0.07236115
0.07233100
0.07229153
0.07224196
0.07218144
0.07210908
0.07202392
0.07192497
0.07181116
0.07168137
0.07153442
0.07136909
0.07118408
0.07097804
0.07074959
0.07049728
0.07021961
0.06991507
0.06958207
0.06921902
0.06882429
0.06839626
0.06793326
0.06743365
0.06689579
0.06631807
0.06569890
0.06503674
0.06433010
0.06357755
0.06277775
0.06192945
0.06103149
0.06008281
0.05908251
0.05802978
0.05692397
0.05576458
0.05455126
0.05328381
0.05196222
0.05058661
0.04915731
0.04767480
0.04613971
0.04455288
0.04291528
0.04122806
0.03949253
0.03771014
0.03588249
0.03401133
0.03209852
0.03014607
0.02815610
0.02613084
0.02407261
0.02198383
0.01986702
0.01772476
0.01555970
0.01337457
0.01117213
0.00895520
0.00672663
0.00448930
0.00226360
0.00012099
0.00024024
0.00036070
0.00048155
0.00060293
0.00072497
0.00084781
0.00097157
0.00109639
0.00122240
0.00134973
0.00147851
0.00160886
0.00174093
0.00187484
0.00201071
0.00214868
0.00228887
0.00243141
0.00257643
0.00272404
0.00287439
0.00302758
0.00318374
0.00334300
0.00350548
0.00367129
0.00384056
0.00401340
0.00418993
0.00437026
0.00455452
0.00474282
0.00493526
0.00513196
0.00533303
0.00553858
0.00574872
0.00596354
0.00618317
0.00640769
0.00663721
0.00687184
0.00711166
0.00735679
0.00760731
0.00786331
0.00812490
0.00839215
0.00866517
0.00894403
0.00922883
0.00951965
0.00981656
0.01011966
0.01042902
0.01074471
0.01106682
0.01139541
0.01173056
0.01207234
0.01242081
0.01277605
0.01313811
0.01350707
0.01388297
0.01426588
0.01465586
0.01505296
0.01545723
0.01586873
0.01628750
0.01671358
0.01714704
0.01758790
0.01803620
0.01849199
0.01895531
0.01942617
0.01990463
0.02039069
0.02088440
0.02138577
0.02189482
0.02241157
0.02293604
0.02346824
0.02400817
0.02455583
0.02511124
0.02567439
0.02624527
0.02682387
0.02741017
0.02800416
0.02860581
0.02921509
0.02983197
0.03045640
0.03108834
0.03172774
0.03237453
0.03302865
0.03369003
0.03435858
0.03503422
0.03571685
0.03640636
0.03710263
0.03780555
0.03851497
0.03923075
0.03995273
0.04068075
0.04141463
0.04215416
0.04289916
0.04364940
0.04440465
0.04516467
0.04592919
0.04669795
0.04747065
0.04824700
0.04902668
0.04980935
0.05059466
0.05138225
0.05217174
0.05296273
0.05375481
0.05454756
0.05534054
0.05613328
0.05692532
0.05771618
0.05850536
0.05929234
0.06007663
0.06085767
0.06163494
0.06240789
0.06317596
0.06393861
0.06469527
0.06544538
0.06618838
0.06692370
0.06765080
0.06836912
0.06907813
0.06977728
0.07046607
0.07114399
0.07181054
0.07246527
0.07310772
0.07373747
0.07435412
0.07495729
0.07554664
0.07612185
0.07668264
0.07722875
0.07775997
0.07827612
0.07877704
0.07926264
0.07973282
0.08018756
0.08062685
0.08105072
0.08145925
0.08185253
0.08223072
0.08259397
0.08294249
0.08327651
0.08359629
0.08390212
0.08419431
0.08447319
0.08473911
0.08499246
0.08523361
0.08546297
0.08568096
0.08588799
0.08608451
0.08627095
0.08644775
0.08661536
0.08677422
0.08692477
0.08706745
0.08720270
0.08733095
0.08745261
0.08756810
0.08767783
0.08778218
0.08788153
0.08797627
0.08806674
0.08815329
0.08823625
0.08831594
0.08839266
0.08846671
0.08853835
0.08860786
0.08867546
0.08874141
0.08880591
0.08886917
0.08893139
0.08899272
0.08905335
0.08911342
0.08917306
0.08923240
0.08929155
0.08935061
0.08940967
0.08946882
0.08952811
0.08958762
0.08964738
0.08970744
0.08976785
0.08982861
0.08988977
0.08995133
0.09001330
0.09007570
0.09013853
0.09020178
0.09026546
0.09032955
0.09039407
0.09045899
0.09052431
0.09059002
0.09065611
0.09072258
0.09078940
0.09085658
0.09092410
0.09099196
0.09106015
0.09112867
0.09119750
0.09126664
0.09133610
0.09140586
0.09147592
0.09154629
0.09161696
0.09168794
0.09175921
0.09183080
0.09190269
0.09197489
0.09204740
0.09212022
0.09219336
0.09226681
0.09234058
0.09241467
0.09248908
0.09256381
0.09263886
0.09271422
0.09278990
0.09286588
0.09294218
0.09301877
0.09309566
0.09317284
0.09325030
0.09332804
0.09340604
0.09348430
0.09356281
0.09364155
0.09372052
0.09379971
0.09387909
0.09395866
0.09403840
0.09411829
0.09419831
0.09427843
0.09435864
0.09443891
0.09451920
0.09459947
0.09467970
0.09475983
0.09483981
0.09491959
0.09499911
0.09507829
0.09515706
0.09523534
0.09531302
0.09539001
0.09546619
0.09554143
0.09561559
0.09568852
0.09576005
0.09583000
0.09589817
0.09596434
0.09602827
0.09608970
0.09614834
0.09620389
0.09625601
0.09630433
0.09634846
0.09638797
0.09642238
0.09645119
0.09647386
0.09648978
0.09649833
0.09649880
0.09649046
0.09647251
0.09644409
0.09640428
0.09635209
0.09628648
0.09620632
0.09611043
0.09599754
0.09586631
0.09571532
0.09554308
0.09534802
0.09512851
0.09488281
0.09460913
0.09430562
0.09397034
0.09360130
0.09319645
0.09275371
0.09227092
0.09174592
0.09117652
0.09056050
0.08989568
0.08917984
0.08841084
0.08758655
0.08670489
0.08576389
0.08476163
0.08369631
0.08256625
0.08136991
0.08010587
0.07877292
0.07736998
0.07589620
0.07435088
0.07273358
0.07104403
0.06928220
0.06744829
0.06554272
0.06356613
0.06151940
0.05940363
0.05722013
0.05497044
0.05265631
0.05027968
0.04784271
0.04534771
0.04279720
0.04019384
0.03754047
0.03484006
0.03209571
0.02931066
0.02648826
0.02363195
0.02074528
0.01783186
0.01489539
0.01193961
0.00896833
0.00598539
0.00301795
0.00015101
0.00029985
0.00045019
0.00060102
0.00075252
0.00090484
0.00105816
0.00121263
0.00136842
0.00152569
0.00168461
0.00184534
0.00200804
0.00217287
0.00234000
0.00250959
0.00268179
0.00285676
0.00303467
0.00321567
0.00339991
0.00358755
0.00377876
0.00397367
0.00417244
0.00437523
0.00458218
0.00479344
0.00500916
0.00522949
0.00545458
0.00568455
0.00591956
0.00615975
0.00640526
0.00665622
0.00691277
0.00717504
0.00744317
0.00771729
0.00799752
0.00828399
0.00857683
0.00887616
0.00918211
0.00949478
0.00981431
0.01014080
0.01047437
0.01081512
0.01116318
0.01151864
0.01188162
0.01225221
0.01263051
0.01301663
0.01341066
0.01381269
0.01422281
0.01464113
0.01506771
0.01550266
0.01594605
0.01639795
0.01685846
0.01732764
0.01780557
0.01829233
0.01878797
0.01929256
0.01980617
0.02032886
0.02086069
0.02140172
0.02195198
0.02251155
0.02308046
0.02365876
0.02424650
0.02484370
0.02545041
0.02606665
0.02669247
0.02732788
0.02797290
0.02862756
0.02929187
0.02996584
0.03064947
0.03134277
0.03204573
0.03275835
0.03348061
0.03421250
0.03495399
0.03570505
0.03646564
0.03723573
0.03801525
0.03880416
0.03960238
0.04040985
0.04122648
0.04205219
0.04288686
0.04373039
0.04458267
0.04544355
0.04631289
0.04719055
0.04807634
0.04897010
0.04987162
0.05078069
0.05169711
0.05262061
0.05355097
0.05448789
0.05543110
0.05638029
0.05733514
0.05829531
0.05926044
0.06023016
0.06120407
0.06218176
0.06316278
0.06414670
0.06513303
0.06612127
0.06711093
0.06810147
0.06909233
0.07008295
0.07107274
0.07206111
0.07304743
0.07403107
0.07501137
0.07598769
0.07695935
0.07792566
0.07888594
0.07983949
0.08078562
0.08172361
0.08265277
0.08357240
0.08448180
0.08538029
0.08626718
0.08714181
0.08800354
0.08885173
0.08968577
0.09050506
0.09130906
0.09209722
0.09286904
0.09362404
0.09436181
0.09508193
0.09578405
0.09646786
0.09713307
0.09777946
0.09840683
0.09901505
0.09960402
0.10017369
0.10072405
0.10125514
0.10176705
0.10225990
0.10273386
0.10318914
0.10362600
0.10404472
0.10444561
0.10482905
0.10519540
0.10554510
0.10587857
0.10619628
0.10649872
0.10678639
0.10705980
0.10731948
0.10756597
0.10779982
0.10802159
0.10823181
0.10843105
0.10861985
0.10879877
0.10896836
0.10912913
0.10928162
0.10942635
0.10956381
0.10969450
0.10981890
0.10993747
0.11005066
0.11015890
0.11026260
0.11036216
0.11045797
0.11055038
0.11063975
0.11072640
0.11081064
0.11089277
0.11097306
0.11105177
0.11112914
0.11120540
0.11128074
0.11135537
0.11142945
0.11150314
0.11157659
0.11164993
0.11172326
0.11179670
0.11187033
0.11194422
0.11201845
0.11209307
0.11216812
0.11224364
0.11231965
0.11239619
0.11247326
0.11255087
0.11262904
0.11270775
0.11278701
0.11286681
0.11294714
0.11302799
0.11310936
0.11319122
0.11327358
0.11335640
0.11343969
0.11352342
0.11360760
0.11369220
0.11377722
0.11386265
0.11394847
0.11403469
0.11412130
0.11420830
0.11429567
0.11438342
0.11447155
0.11456006
0.11464895
0.11473821
0.11482786
0.11491789
0.11500831
0.11509912
0.11519031
0.11528191
0.11537390
0.11546628
0.11555907
0.11565225
0.11574583
0.11583980
0.11593417
0.11602892
0.11612406
0.11621957
0.11631545
0.11641169
0.11650828
0.11660522
0.11670249
0.11680008
0.11689798
0.11699617
0.11709464
0.11719338
0.11729236
0.11739157
0.11749099
0.11759060
0.11769036
0.11779026
0.11789026
0.11799032
0.11809042
0.11819050
0.11829051
0.11839041
0.11849013
0.11858959
0.11868873
0.11878745
0.11888567
0.11898328
0.11908015
0.11917616
0.11927116
0.11936500
0.11945751
0.11954849
0.11963774
0.11972502
0.11981009
0.11989268
0.11997249
0.12004919
0.12012243
0.12019183
0.12025697
0.12031739
0.12037259
0.12042206
0.12046519
0.12050137
0.12052990
0.12055006
0.12056104
0.12056199
0.12055199
0.12053003
0.12049506
0.12044591
0.12038138
0.12030015
0.12020082
0.12008190
0.11994182
0.11977891
0.11959139
0.11937741
0.11913499
0.11886209
0.11855655
0.11821613
0.11783849
0.11742122
0.11696182
0.11645772
0.11590631
0.11530488
0.11465073
0.11394109
0.11317320
0.11234430
0.11145162
0.11049244
0.10946411
0.10836402
0.10718968
0.10593868
0.10460876
0.10319781
0.10170388
0.10012523
0.09846029
0.09670775
0.09486650
0.09293571
0.09091480
0.08880346
0.08660165
0.08430961
0.08192790
0.07945731
0.07689896
0.07425423
0.07152478
0.06871256
0.06581974
0.06284878
0.05980238
0.05668344
0.05349512
0.05024077
0.04692392
0.04354831
0.04011781
0.03663649
0.03310851
0.02953819
0.02592996
0.02228833
0.01861793
0.01492343
0.01120957
0.00748117
0.00377215
0.00018087
0.00035915
0.00053923
0.00071990
0.00090136
0.00108381
0.00126744
0.00145246
0.00163907
0.00182744
0.00201779
0.00221031
0.00240519
0.00260263
0.00280281
0.00300594
0.00321220
0.00342178
0.00363487
0.00385167
0.00407235
0.00429711
0.00452613
0.00475959
0.00499768
0.00524057
0.00548845
0.00574150
0.00599989
0.00626380
0.00653340
0.00680886
0.00709036
0.00737805
0.00767212
0.00797271
0.00828000
0.00859415
0.00891531
0.00924365
0.00957930
0.00992244
0.01027320
0.01063174
0.01099819
0.01137271
0.01175544
0.01214651
0.01254605
0.01295421
0.01337112
0.01379689
0.01423166
0.01467555
0.01512868
0.01559118
0.01606315
0.01654470
0.01703596
0.01753702
0.01804799
0.01856897
0.01910007
0.01964137
0.02019297
0.02075497
0.02132745
0.02191050
0.02250419
0.02310861
0.02372384
0.02434994
0.02498699
0.02563505
0.02629420
0.02696448
0.02764596
0.02833869
0.02904272
0.02975810
0.03048487
0.03122307
0.03197273
0.03273390
0.03350658
0.03429082
0.03508661
0.03589399
0.03671295
0.03754350
0.03838563
0.03923934
0.04010461
0.04098142
0.04186974
0.04276954
0.04368077
0.04460339
0.04553733
0.04648252
0.04743890
0.04840636
0.04938482
0.05037417
0.05137428
0.05238503
0.05340627
0.05443786
0.05547960
0.05653133
0.05759284
0.05866392
0.05974433
0.06083384
0.06193216
0.06303903
0.06415413
0.06527715
0.06640775
0.06754555
0.06869019
0.06984125
0.07099830
0.07216091
0.07332859
0.07450085
0.07567718
0.07685702
0.07803982
0.07922499
0.08041191
0.08159995
0.08278845
0.08397673
0.08516410
0.08634982
0.08753317
0.08871338
0.08988967
0.09106125
0.09222733
0.09338707
0.09453967
0.09568427
0.09682004
0.09794614
0.09906173
0.10016596
0.10125800
0.10233702
0.10340221
0.10445277
0.10548792
0.10650689
0.10750895
0.10849339
0.10945953
0.11040673
0.11133438
0.11224191
0.11312879
0.11399456
0.11483876
0.11566102
0.11646100
0.11723842
0.11799305
0.11872471
0.11943329
0.12011871
0.12078098
0.12142011
0.12203623
0.12262947
0.12320003
0.12374816
0.12427416
0.12477837
0.12526117
0.12572298
0.12616426
0.12658551
0.12698725
0.12737004
0.12773445
0.12808108
0.12841055
0.12872349
0.12902054
0.12930237
0.12956962
0.12982295
0.13006304
0.13029054
0.13050611
0.13071040
0.13090404
0.13108766
0.13126190
0.13142734
0.13158458
0.13173419
0.13187672
0.13201272
0.13214271
0.13226717
0.13238660
0.13250145
0.13261216
0.13271915
0.13282282
0.13292354
0.13302166
0.13311753
0.13321146
0.13330374
0.13339464
0.13348442
0.13357330
0.13366151
0.13374924
0.13383667
0.13392395
0.13401122
0.13409862
0.13418626
0.13427422
0.13436259
0.13445144
0.13454082
0.13463079
0.13472138
0.13481261
0.13490450
0.13499707
0.13509032
0.13518425
0.13527885
0.13537413
0.13547007
0.13556665
0.13566387
0.13576170
0.13586013
0.13595914
0.13605873
0.13615886
0.13625953
0.13636072
0.13646242
0.13656462
0.13666730
0.13677045
0.13687408
0.13697817
0.13708271
0.13718771
0.13729316
0.13739907
0.13750542
0.13761223
0.13771949
0.13782721
0.13793539
0.13804404
0.13815315
0.13826274
0.13837279
0.13848332
0.13859433
0.13870581
0.13881777
0.13893020
0.13904311
0.13915647
0.13927030
0.13938457
0.13949929
0.13961444
0.13973002
0.13984600
0.13996238
0.14007915
0.14019628
0.14031376
0.14043157
0.14054970
0.14066812
0.14078681
0.14090574
0.14102490
0.14114424
0.14126373
0.14138335
0.14150304
0.14162277
0.14174247
0.14186210
0.14198159
0.14210086
0.14221984
0.14233843
0.14245653
0.14257403
0.14269080
0.14280670
0.14292158
0.14303527
0.14314758
0.14325830
0.14336721
0.14347406
0.14357858
0.14368046
0.14377939
0.14387500
0.14396692
0.14405472
0.14413795
0.14421610
0.14428862
0.14435495
0.14441442
0.14446636
0.14451000
0.14454454
0.14456910
0.14458272
0.14458439
0.14457300
0.14454736
0.14450619
0.14444813
0.14437172
0.14427538
0.14415745
0.14401614
0.14384957
0.14365572
0.14343249
0.14317764
0.14288880
0.14256352
0.14219920
0.14179315
0.14134256
0.14084452
0.14029604
0.13969401
0.13903528
0.13831660
0.13753471
0.13668626
0.13576793
0.13477637
0.13370825
0.13256030
0.13132930
0.13001210
0.12860569
0.12710717
0.12551380
0.12382304
0.12203254
0.12014017
0.11814408
0.11604266
0.11383460
0.11151889
0.10909484
0.10656207
0.10392055
0.10117060
0.09831287
0.09534836
0.09227840
0.08910469
0.08582922
0.08245435
0.07898272
0.07541729
0.07176131
0.06801829
0.06419204
0.06028657
0.05630616
0.05225527
0.04813858
0.04396096
0.03972743
0.03544315
0.03111344
0.02674372
0.02233952
0.01790646
0.01345021
0.00897653
0.00452613
0.00021056
0.00041810
0.00062772
0.00083804
0.00104928
0.00126168
0.00147545
0.00169084
0.00190806
0.00212736
0.00234895
0.00257306
0.00279993
0.00302976
0.00326280
0.00349927
0.00373937
0.00398335
0.00423142
0.00448379
0.00474069
0.00500234
0.00526894
0.00554072
0.00581788
0.00610064
0.00638921
0.00668378
0.00698458
0.00729180
0.00760565
0.00792632
0.00825401
0.00858893
0.00893125
0.00928118
0.00963891
0.01000462
0.01037849
0.01076071
0.01115145
0.01155091
0.01195924
0.01237662
0.01280322
0.01323922
0.01368476
0.01414001
0.01460514
0.01508029
0.01556562
0.01606128
0.01656741
0.01708416
0.01761167
0.01815008
0.01869952
0.01926012
0.01983201
0.02041532
0.02101017
0.02161667
0.02223495
0.02286511
0.02350727
0.02416153
0.02482799
0.02550676
0.02619792
0.02690157
0.02761781
0.02834671
0.02908836
0.02984283
0.03061021
0.03139055
0.03218394
0.03299043
0.03381008
0.03464294
0.03548908
0.03634852
0.03722132
0.03810752
0.03900713
0.03992020
0.04084674
0.04178677
0.04274029
0.04370732
0.04468785
0.04568187
0.04668936
0.04771030
0.04874465
0.04979239
0.05085345
0.05192779
0.05301533
0.05411600
0.05522970
0.05635634
0.05749581
0.05864798
0.05981272
0.06098987
0.06217927
0.06338074
0.06459409
0.06581909
0.06705553
0.06830315
0.06956168
0.07083084
0.07211033
0.07339982
0.07469895
0.07600735
0.07732464
0.07865038
0.07998414
0.08132546
0.08267382
0.08402872
0.08538961
0.08675591
0.08812703
0.08950232
0.09088115
0.09226281
0.09364662
0.09503182
0.09641765
0.09780332
0.09918803
0.10057092
0.10195114
0.10332781
0.10470002
0.10606686
0.10742737
0.10878062
0.11012564
0.11146145
0.11278708
0.11410154
0.11540384
0.11669302
0.11796808
0.11922807
0.12047204
0.12169904
0.12290816
0.12409851
0.12526923
0.12641949
0.12754849
0.12865547
0.12973972
0.13080058
0.13183743
0.13284969
0.13383686
0.13479847
0.13573415
0.13664354
0.13752638
0.13838245
0.13921162
0.14001378
0.14078893
0.14153711
0.14225843
0.14295305
0.14362120
0.14426316
0.14487928
0.14546994
0.14603559
0.14657671
0.14709384
0.14758754
0.14805844
0.14850716
0.14893437
0.14934077
0.14972709
0.15009404
0.15044238
0.15077287
0.15108626
0.15138334
0.15166487
0.15193162
0.15218435
0.15242382
0.15265077
0.15286593
0.15307003
0.15326376
0.15344782
0.15362287
0.15378956
0.15394852
0.15410035
0.15424564
0.15438496
0.15451883
0.15464778
0.15477229
0.15489284
0.15500986
0.15512378
0.15523500
0.15534388
0.15545077
0.15555601
0.15565988
0.15576268
0.15586465
0.15596604
0.15606705
0.15616787
0.15626869
0.15636965
0.15647088
0.15657251
0.15667463
0.15677733
0.15688067
0.15698472
0.15708951
0.15719509
0.15730147
0.15740866
0.15751669
0.15762554
0.15773521
0.15784569
0.15795697
0.15806903
0.15818186
0.15829543
0.15840972
0.15852471
0.15864039
0.15875672
0.15887370
0.15899130
0.15910950
0.15922829
0.15934765
0.15946758
0.15958806
0.15970907
0.15983063
0.15995271
0.16007532
0.16019845
0.16032211
0.16044629
0.16057100
0.16069624
0.16082201
0.16094832
0.16107517
0.16120257
0.16133051
0.16145900
0.16158805
0.16171766
0.16184781
0.16197852
0.16210977
0.16224156
0.16237389
0.16250675
0.16264013
0.16277400
0.16290838
0.16304322
0.16317853
0.16331429
0.16345047
0.16358705
0.16372402
0.16386135
0.16399901
0.16413698
0.16427524
0.16441374
0.16455245
0.16469135
0.16483037
0.16496948
0.16510863
0.16524775
0.16538679
0.16552565
0.16566427
0.16580256
0.16594039
0.16607766
0.16621425
0.16634999
0.16648474
0.16661831
0.16675051
0.16688113
0.16700991
0.16713661
0.16726092
0.16738255
0.16750114
0.16761631
0.16772766
0.16783473
0.16793705
0.16803407
0.16812522